# Wall shear stress
# Time          	patch           	min             	max             
1000            	bottomWall	(-1.15241514e+01 -1.16924266e+00 -3.87071905e-16)	(5.36253272e-01 3.52724374e+00 2.39543560e-16)
2000            	bottomWall	(-1.18425138e+01 -1.19771865e+00 -3.94997937e-16)	(5.53302131e-01 3.61836068e+00 2.45290574e-16)
3000            	bottomWall	(-1.19056179e+01 -1.20242782e+00 -3.96554647e-16)	(5.56111922e-01 3.63628563e+00 2.46423075e-16)
4000            	bottomWall	(-1.19164782e+01 -1.20296490e+00 -3.96806430e-16)	(5.56591731e-01 3.63937027e+00 2.46601975e-16)
5000            	bottomWall	(-1.19181635e+01 -1.20301020e+00 -3.96845728e-16)	(5.56647355e-01 3.63984934e+00 2.46629326e-16)
