/*--------------------------------*- C++ -*----------------------------------*\
| =========                 |                                                 |
| \\      /  F ield         | OpenFOAM: The Open Source CFD Toolbox           |
|  \\    /   O peration     | Version:  2406                                  |
|   \\  /    A nd           | Website:  www.openfoam.com                      |
|    \\/     M anipulation  |                                                 |
\*---------------------------------------------------------------------------*/
FoamFile
{
    version     2.0;
    format      ascii;
    arch        "LSB;label=32;scalar=64";
    class       volVectorField;
    location    "0";
    object      force;
}
// * * * * * * * * * * * * * * * * * * * * * * * * * * * * * * * * * * * * * //

dimensions      [1 1 -2 0 0 0 0];

internalField   uniform (0 0 0);

boundaryField
{
    inlet
    {
        type            calculated;
        value           uniform (0 0 0);
    }
    topWall
    {
        type            symmetry;
    }
    jet
    {
        type            calculated;
        value           uniform (0 0 0);
    }
    outlet
    {
        type            calculated;
        value           uniform (0 0 0);
    }
    bottomWall
    {
        type            calculated;
        value           uniform (0 0 0);
    }
    hump
    {
        type            calculated;
        value           nonuniform List<vector> 
206
(
(0.077617574 -0.23360005 4.5087187e-20)
(0.061643885 -0.20843921 -2.1411055e-21)
(0.041849394 -0.17632109 1.7699111e-20)
(0.021744677 -0.13876392 2.0918154e-20)
(0.013014571 -0.11257278 -1.2796915e-20)
(0.0061240243 -0.085815241 4.3583791e-21)
(0.0029174355 -0.056015049 2.3714358e-20)
(0.0078744678 -0.029177685 5.6743221e-20)
(-0.0020762628 0.039975045 -2.0875535e-19)
(-0.069168775 0.19705053 -3.6776419e-27)
(-0.081311976 0.24811573 7.1514097e-20)
(-0.086902434 0.28574715 1.2564795e-19)
(-0.091446888 0.32316372 2.0320035e-19)
(-0.094549473 0.36073048 2.931879e-19)
(-0.095817651 0.39498527 1.2820192e-19)
(-0.096067271 0.42751268 4.0074962e-20)
(-0.095759503 0.45855574 -1.5101083e-19)
(-0.095191464 0.49002055 -1.4860628e-19)
(-0.0942467 0.52186815 -1.7784586e-19)
(-0.092919608 0.5540203 1.3962896e-19)
(-0.09133656 0.58673544 3.2500591e-20)
(-0.081840485 0.56250055 -1.1069579e-19)
(-0.067022805 0.50195027 -5.4544526e-20)
(-0.059525378 0.4905561 4.1896805e-22)
(-0.052052511 0.4775338 1.3207811e-19)
(-0.044598297 0.46171606 -4.6597806e-20)
(-0.036483 0.4417674 -1.2755016e-20)
(-0.028386962 0.41839342 -2.5340148e-20)
(-0.02127197 0.39488239 1.356421e-20)
(-0.015161061 0.3706289 -2.4347598e-21)
(-0.009674997 0.34792174 -9.3072888e-21)
(-0.0050476871 0.32423104 5.8532405e-21)
(-0.0013344486 0.30191284 1.574956e-21)
(0.001847958 0.28069722 -8.2487531e-22)
(0.0045384226 0.26041681 -6.3530423e-22)
(0.0065571484 0.24120215 1.4353211e-21)
(0.0082755308 0.22373453 2.2404746e-21)
(0.0097583549 0.20686473 -2.5860028e-21)
(0.010707148 0.19087897 -2.2027946e-21)
(0.011489629 0.17649442 -6.5108795e-22)
(0.012217479 0.16291002 -6.1708232e-26)
(0.012675175 0.14985287 -1.3106303e-21)
(0.012876376 0.13766238 -1.8973623e-21)
(0.01290844 0.12639112 2.6208143e-21)
(0.012811611 0.11598002 2.1416886e-21)
(0.012614326 0.10638251 -1.275731e-21)
(0.01233561 0.097553998 -1.6264753e-21)
(0.011996855 0.089466404 -1.4131125e-21)
(0.011646849 0.082082909 -3.0128374e-21)
(0.011302576 0.075277623 -4.2159924e-41)
(0.01094296 0.068953251 -4.6011117e-38)
(0.010554107 0.06306676 2.206834e-22)
(0.010109621 0.057589802 2.4532579e-21)
(0.0096129115 0.052496528 -1.3747029e-21)
(0.0090902189 0.047849723 -1.2960853e-21)
(0.0085738364 0.043727624 -2.3307872e-21)
(0.008073654 0.040037021 -4.6251007e-22)
(0.0076299031 0.036756889 1.9536526e-22)
(0.0072679718 0.033775047 -3.2990004e-22)
(0.0069466787 0.030921912 -6.0390021e-22)
(0.0066435018 0.02821163 -1.6614648e-21)
(0.0063549565 0.025765127 -9.0096791e-22)
(0.0060597606 0.023454559 -4.2231129e-23)
(0.0057179174 0.021073884 3.4435319e-26)
(0.0055089409 0.019394021 -8.2271199e-22)
(0.0048824129 0.016584087 -6.1648966e-22)
(0.007986158 0.021427565 -1.9762389e-22)
(0.0078954901 0.020325741 -1.3835881e-21)
(0.0079386781 0.019601128 5.4926175e-23)
(0.0078972618 0.018707889 -6.3387227e-22)
(0.0079391324 0.017982032 -6.7336785e-22)
(0.0080069642 0.017329078 -1.0251644e-21)
(0.0081023215 0.016756708 7.8353783e-22)
(0.008277225 0.016286997 1.596513e-22)
(0.0084257583 0.015812015 1.2468384e-21)
(0.0086497144 0.015535785 8.9072689e-22)
(0.0088624357 0.015286164 5.9444348e-23)
(0.0090813219 0.015098064 7.4533995e-22)
(0.0092933614 0.014961891 3.030409e-22)
(0.0095126797 0.014849387 -2.0530527e-23)
(0.0097715177 0.014768548 -1.0526109e-21)
(0.0099725441 0.014723589 -4.7802381e-26)
(0.010194998 0.014691691 -1.1148922e-21)
(0.010414171 0.014674036 3.4029653e-22)
(0.010626667 0.014672179 -1.0990144e-21)
(0.010862548 0.014678692 -2.3364281e-21)
(0.011087602 0.014699005 -3.1680028e-21)
(0.011299623 0.014728314 2.3466619e-21)
(0.011510945 0.014764123 8.7999895e-22)
(0.011708862 0.014810429 -1.569024e-21)
(0.011937279 0.014900548 -4.2040846e-21)
(0.01208711 0.014908085 -2.176069e-21)
(0.01217987 0.014851324 -2.251669e-21)
(0.012483684 0.015111309 -2.2859992e-21)
(0.012773666 0.015330815 -7.0926727e-22)
(0.012816636 0.015292903 1.8536286e-21)
(0.013004942 0.015443396 4.1495796e-21)
(0.013177463 0.01558465 1.5333707e-21)
(0.013320537 0.015691384 -1.1670006e-21)
(0.013476975 0.015829623 -4.4204188e-22)
(0.013643924 0.01597947 1.999841e-22)
(0.013818174 0.016139789 1.7742325e-21)
(0.01395746 0.016310186 1.9863288e-21)
(0.014096292 0.016487985 1.8439666e-21)
(0.014213037 0.016686371 4.517401e-23)
(0.014228684 0.016819175 5.8045871e-22)
(0.014504872 0.017244391 5.6191931e-22)
(0.014611081 0.017478726 -9.4207791e-22)
(0.014688501 0.01764085 1.614658e-21)
(0.014824343 0.017904562 -1.7489284e-22)
(0.014928169 0.018048785 -1.4367067e-21)
(0.015147746 0.018358041 -2.5007915e-21)
(0.015286305 0.018561453 -7.8794112e-21)
(0.015549032 0.018896872 -3.9254392e-21)
(0.015780857 0.019223247 3.2315488e-21)
(0.015845642 0.019391497 2.2734048e-21)
(0.015987656 0.019677512 1.1747508e-21)
(0.016142798 0.020007219 -7.2602002e-21)
(0.016308525 0.02039452 -1.485964e-21)
(0.016463848 0.020806724 -4.6065295e-21)
(0.016486639 0.021052168 -1.5331792e-21)
(0.016518435 0.021414061 -1.7106628e-23)
(0.016621424 0.021815684 -1.8720835e-21)
(0.016772952 0.022292698 -1.9543457e-21)
(0.016870191 0.022710541 3.8397902e-21)
(0.016992984 0.023193756 1.0251018e-25)
(0.017103188 0.02361822 6.1245615e-26)
(0.017201442 0.02404156 2.967406e-21)
(0.017299502 0.024512131 4.3669412e-21)
(0.017410284 0.025024647 1.4419172e-21)
(0.017488721 0.025502725 2.0441844e-21)
(0.017549406 0.026019599 7.1982697e-26)
(0.017606041 0.026594403 -4.5298221e-21)
(0.017645997 0.027130191 -6.9942247e-22)
(0.017669636 0.027687291 2.062095e-21)
(0.017684529 0.028295521 3.9705946e-21)
(0.017694548 0.028935065 1.6390081e-22)
(0.017691012 0.029539241 2.775588e-21)
(0.017666265 0.030124246 9.9097949e-22)
(0.017619779 0.03086431 -1.1198821e-21)
(0.017583673 0.031500254 -2.4417698e-21)
(0.017526254 0.032161412 -3.6266317e-21)
(0.01742852 0.032910678 4.330896e-22)
(0.017329576 0.033620207 2.8105164e-21)
(0.017220668 0.03431282 6.2857009e-21)
(0.017082936 0.035090025 1.8555741e-21)
(0.016933621 0.035900072 3.3005981e-21)
(0.016765358 0.036611106 -2.1974392e-22)
(0.016579851 0.037409356 7.9431235e-21)
(0.016368946 0.038285518 2.4050052e-21)
(0.016157397 0.039114243 -1.982597e-21)
(0.015879055 0.040106182 -3.407436e-21)
(0.015641669 0.041014742 -3.2319918e-21)
(0.015393005 0.041955596 -7.7204829e-22)
(0.015136652 0.042889276 -2.0876087e-21)
(0.014901666 0.043710603 -5.2934682e-21)
(0.014607742 0.044689301 7.6445275e-22)
(0.014349346 0.045553208 3.183785e-21)
(0.014072873 0.046382716 3.5316581e-21)
(0.013822605 0.047238891 5.3471046e-21)
(0.013554893 0.048166392 1.1854358e-21)
(0.013324043 0.048957429 3.4831201e-21)
(0.014119369 0.05376033 -5.3120545e-21)
(0.014681365 0.057681301 -4.7905575e-21)
(0.014170137 0.057592117 -1.11902e-37)
(0.013679778 0.057484658 2.9541105e-21)
(0.013212709 0.057364484 2.7428389e-21)
(0.012767165 0.057232406 -1.5813735e-25)
(0.012340419 0.057082482 -1.5883049e-25)
(0.011936539 0.056917372 2.7289783e-21)
(0.011558468 0.056747724 7.1867804e-22)
(0.011211193 0.056565748 -6.4198041e-22)
(0.010892862 0.056343299 6.6622573e-22)
(0.010577896 0.056111026 -3.5329691e-21)
(0.010273396 0.055870043 1.8367657e-21)
(0.0099809571 0.055614161 3.5316283e-21)
(0.0096961391 0.055353628 1.4667161e-21)
(0.0094294456 0.055070977 2.5526775e-21)
(0.009165733 0.054776217 -4.7403466e-21)
(0.0088995752 0.054490817 1.1607202e-21)
(0.0086527187 0.054195272 1.0399782e-20)
(0.0084259843 0.053887169 5.226362e-21)
(0.0082048873 0.053540479 5.7636058e-21)
(0.0079638675 0.053222574 7.7583523e-23)
(0.0077712412 0.052884437 1.465766e-25)
(0.0075816632 0.052516143 2.4699023e-21)
(0.0073824378 0.052172001 -1.6646978e-21)
(0.0072036248 0.051818214 -8.1287018e-22)
(0.0070362657 0.051426791 -1.6523053e-21)
(0.0068568107 0.051041374 -1.1353216e-21)
(0.0066774038 0.050657626 -1.2224697e-21)
(0.0065053206 0.050258016 -2.6749532e-21)
(0.0063282337 0.049853529 -1.2456437e-21)
(0.0061449502 0.049453162 2.0445637e-21)
(0.0059656425 0.049051629 -5.3510503e-22)
(0.0057895325 0.048642561 -5.3562791e-21)
(0.0055942738 0.048189433 2.7737655e-21)
(0.0054274776 0.047790891 -2.1639575e-21)
(0.0052751355 0.047351036 -8.4569977e-22)
(0.0051057618 0.046928514 -9.4265874e-23)
(0.0049382352 0.046498988 -1.4522371e-22)
(0.0047832006 0.04905957 8.6437215e-22)
(0.0046325545 0.072613049 2.4497482e-21)
(0.0043504758 0.071323752 2.3184851e-21)
(0.0041474576 0.064736969 9.8907974e-24)
(0.0039423238 0.067899787 2.7086749e-21)
)
;
    }
    defaultFaces
    {
        type            empty;
    }
}


// ************************************************************************* //
