/*--------------------------------*- C++ -*----------------------------------*\
| =========                 |                                                 |
| \\      /  F ield         | OpenFOAM: The Open Source CFD Toolbox           |
|  \\    /   O peration     | Version:  2406                                  |
|   \\  /    A nd           | Website:  www.openfoam.com                      |
|    \\/     M anipulation  |                                                 |
\*---------------------------------------------------------------------------*/
FoamFile
{
    version     2.0;
    format      ascii;
    arch        "LSB;label=32;scalar=64";
    class       volScalarField;
    location    "0";
    object      initialResidual:Uy;
}
// * * * * * * * * * * * * * * * * * * * * * * * * * * * * * * * * * * * * * //

dimensions      [0 0 0 0 0 0 0];

internalField   nonuniform List<scalar> 
18060
(
-1.9188762e-14
-2.2285187e-14
-4.8433204e-14
-8.2661674e-14
-1.4871482e-13
-1.3299566e-13
-3.5570805e-13
-8.4169955e-13
-1.5992057e-12
-4.3760736e-12
-1.7290889e-11
-4.7409667e-11
-3.1994886e-14
-9.3490034e-14
-1.9652032e-13
-4.6199762e-13
-7.6575687e-13
-7.3332113e-13
-2.133504e-12
-4.8574659e-12
-8.8915205e-12
-2.3907567e-11
-1.0059314e-10
-2.685718e-10
-3.8820483e-14
-1.6122785e-13
-2.9561337e-13
-8.3646038e-13
-1.3712299e-12
-1.4069217e-12
-4.3450087e-12
-9.7743269e-12
-1.7498753e-11
-4.7387616e-11
-2.0160686e-10
-5.269908e-10
-3.2586146e-14
-1.8141371e-13
-3.1437694e-13
-1.0908332e-12
-1.8717621e-12
-2.0430455e-12
-6.6637412e-12
-1.4993094e-11
-2.638806e-11
-7.2783557e-11
-3.079265e-10
-7.8792891e-10
-2.698275e-14
-1.5737476e-13
-3.0680263e-13
-1.24009e-12
-2.2670064e-12
-2.5888662e-12
-8.8412894e-12
-2.0037262e-11
-3.4881008e-11
-9.8844565e-11
-4.1367369e-10
-1.0386905e-09
-3.5190108e-14
-1.3534296e-13
-2.5083836e-13
-1.263313e-12
-2.5588334e-12
-3.0131086e-12
-1.0672365e-11
-2.4416151e-11
-4.2255279e-11
-1.239023e-10
-5.1237503e-10
-1.2685758e-09
-5.2583586e-14
-9.4951479e-14
-1.6166718e-13
-1.1981216e-12
-2.7429191e-12
-3.3250255e-12
-1.2137807e-11
-2.8066751e-11
-4.8447304e-11
-1.4832362e-10
-6.0540272e-10
-1.4877422e-09
-8.4162433e-14
-1.1604584e-13
-1.3087747e-13
-9.6757922e-13
-2.6687325e-12
-3.5122612e-12
-1.297956e-11
-3.0405512e-11
-5.2520961e-11
-1.6835161e-10
-6.7848228e-10
-1.6715194e-09
-1.2503067e-13
-1.8373965e-13
-1.8724223e-13
-5.9440587e-13
-2.4023075e-12
-3.525381e-12
-1.3223751e-11
-3.1544343e-11
-5.4756253e-11
-1.8468009e-10
-7.3472327e-10
-1.828196e-09
-1.7987045e-13
-3.1825965e-13
-2.4863175e-13
-5.7880975e-13
-1.7402897e-12
-3.2074093e-12
-1.2757595e-11
-3.1300351e-11
-5.496111e-11
-1.9603564e-10
-7.7042721e-10
-1.9548384e-09
-2.521704e-13
-4.4709952e-13
-4.5605792e-13
-7.9235375e-13
-9.9360099e-13
-2.7129003e-12
-1.1550947e-11
-2.9262276e-11
-5.2412498e-11
-2.0281834e-10
-7.9363377e-10
-1.9656928e-09
-3.2292021e-13
-6.9209167e-13
-6.7898595e-13
-9.9754978e-13
-1.2290051e-12
-1.7963852e-12
-8.7669614e-12
-2.7370735e-11
-4.808124e-11
-1.9543535e-10
-7.6425787e-10
-2.0001998e-09
-4.2689919e-13
-8.8469439e-13
-1.0660805e-12
-1.3965071e-12
-1.2232282e-12
-2.0894762e-12
-6.2561192e-12
-2.0619728e-11
-4.612181e-11
-1.9389679e-10
-7.294414e-10
-1.9464123e-09
-5.3998636e-13
-1.2358777e-12
-6.5661759e-13
-2.7762562e-12
-1.6599692e-12
-2.9676371e-12
-4.2442092e-12
-1.4408272e-11
-3.2885145e-11
-1.705694e-10
-6.7436798e-10
-1.8380761e-09
-6.5415493e-13
-1.5398039e-12
-7.9881419e-13
-3.3076776e-12
-2.0816356e-12
-2.4912367e-12
-7.0255536e-12
-8.6206915e-12
-2.1631909e-11
-1.3756145e-10
-5.9148762e-10
-1.6801596e-09
-6.7341453e-13
-1.8917852e-12
-1.2026242e-12
-3.2996746e-12
-3.0303282e-12
-3.5260476e-12
-6.9350129e-12
-7.1942605e-12
-1.6276711e-11
-1.0130663e-10
-4.8461444e-10
-1.4770252e-09
-6.8452639e-13
-2.3104746e-12
-2.0685455e-12
-3.5711429e-12
-3.6038314e-12
-4.5020631e-12
-8.6515662e-12
-8.9044705e-12
-1.0335881e-11
-4.2598631e-11
-3.9145675e-10
-1.1764027e-09
-7.1638662e-13
-2.6814438e-12
-2.0001092e-12
-4.472168e-12
-4.5048549e-12
-5.6236589e-12
-1.0167878e-11
-1.0794463e-11
-3.0464931e-12
-6.805764e-11
-2.1489737e-10
-8.6316808e-10
-7.3108525e-13
-3.1066591e-12
-3.3706108e-12
-4.1245246e-12
-5.8175315e-12
-7.329009e-12
-1.2172685e-11
-1.1484432e-11
-4.1432054e-12
-7.7529818e-11
-1.8274928e-10
-5.5841735e-10
-8.0826047e-13
-3.403224e-12
-4.0084373e-12
-5.2437937e-12
-6.8252221e-12
-8.4299165e-12
-1.4976449e-11
-1.737089e-11
-1.3865204e-11
-9.2287499e-11
-1.8508697e-10
-3.1026632e-10
-8.2874815e-13
-3.9520806e-12
-4.759029e-12
-6.1908719e-12
-8.4448266e-12
-1.0977178e-11
-1.7943753e-11
-1.8389613e-11
-1.4869651e-11
-1.1911273e-10
-1.9401521e-10
-3.251411e-10
-8.0316159e-13
-4.9907259e-12
-5.7292236e-12
-7.3728228e-12
-1.0866774e-11
-1.4378779e-11
-2.1568246e-11
-2.2835116e-11
-2.8941786e-11
-1.469264e-10
-2.1255486e-10
-3.952467e-10
-8.9290598e-13
-5.6259357e-12
-6.8420152e-12
-8.8819304e-12
-1.2981212e-11
-1.7570069e-11
-2.6165547e-11
-2.7887744e-11
-3.4199713e-11
-1.6611171e-10
-2.6898995e-10
-5.0101438e-10
-9.4295955e-13
-6.7284139e-12
-8.4837741e-12
-1.0981398e-11
-1.6311828e-11
-2.2580868e-11
-3.2625895e-11
-3.6124946e-11
-5.5035383e-11
-1.9934659e-10
-3.1378096e-10
-6.6763995e-10
-1.1127388e-12
-7.6642174e-12
-1.0072105e-11
-1.3358238e-11
-1.9587948e-11
-2.741719e-11
-3.9509663e-11
-4.5750447e-11
-7.0517188e-11
-2.2874351e-10
-3.7761664e-10
-8.2930846e-10
-1.1696951e-12
-9.8564541e-12
-1.2548814e-11
-1.6331852e-11
-2.5035003e-11
-3.6207722e-11
-4.9482417e-11
-5.6983163e-11
-9.7681722e-11
-2.7840614e-10
-4.6000517e-10
-1.0530592e-09
-1.4015337e-12
-1.141204e-11
-1.5093867e-11
-1.989179e-11
-3.0132353e-11
-4.4257999e-11
-6.0225047e-11
-7.1811609e-11
-1.2598332e-10
-3.2345308e-10
-5.4631926e-10
-1.2731276e-09
-1.7925171e-12
-1.3790562e-11
-1.8838195e-11
-2.5482326e-11
-3.7906301e-11
-5.5831346e-11
-7.6948775e-11
-9.7068172e-11
-1.7042391e-10
-3.8613048e-10
-6.7860231e-10
-1.5857971e-09
-2.158964e-12
-1.6528778e-11
-2.2566137e-11
-3.1182841e-11
-4.6161533e-11
-6.799478e-11
-9.4089977e-11
-1.2284678e-10
-2.1804269e-10
-4.5620706e-10
-7.9492537e-10
-1.841891e-09
-2.7696421e-12
-1.9808822e-11
-2.8703729e-11
-3.9675881e-11
-5.8200707e-11
-8.6869817e-11
-1.1980872e-10
-1.5837355e-10
-2.793519e-10
-5.5715846e-10
-9.8315681e-10
-2.2175892e-09
-3.5776022e-12
-2.3041206e-11
-3.4395595e-11
-4.9534236e-11
-7.1283671e-11
-1.0438802e-10
-1.4710236e-10
-2.0317487e-10
-3.5347623e-10
-6.5016557e-10
-1.1659082e-09
-2.6197342e-09
-4.4692654e-12
-2.860063e-11
-4.2989118e-11
-6.2275633e-11
-8.959191e-11
-1.309897e-10
-1.8551381e-10
-2.597833e-10
-4.3878408e-10
-7.8143422e-10
-1.445393e-09
-3.1700426e-09
-5.8008774e-12
-3.2749669e-11
-5.1768872e-11
-7.7553212e-11
-1.0994728e-10
-1.5767908e-10
-2.2632333e-10
-3.2571207e-10
-5.3927495e-10
-9.1725413e-10
-1.7084439e-09
-3.6653361e-09
-7.1301774e-12
-3.974736e-11
-6.3722582e-11
-9.5766074e-11
-1.3560372e-10
-1.9422687e-10
-2.7916099e-10
-4.0326654e-10
-6.4838072e-10
-1.0949155e-09
-2.0572771e-09
-4.2456074e-09
-8.9130574e-12
-4.5929633e-11
-7.5991259e-11
-1.1658139e-10
-1.6412694e-10
-2.3171131e-10
-3.3479698e-10
-4.907089e-10
-7.7429789e-10
-1.2734513e-09
-2.3911776e-09
-4.8072903e-09
-1.0249369e-11
-5.5037764e-11
-9.0404002e-11
-1.3810941e-10
-1.9467327e-10
-2.7568402e-10
-3.9738564e-10
-5.7935634e-10
-8.9555254e-10
-1.4730703e-09
-2.7595825e-09
-5.3716074e-09
-1.1824461e-11
-6.3045336e-11
-1.043335e-10
-1.604277e-10
-2.2563841e-10
-3.1797631e-10
-4.5834001e-10
-6.7021599e-10
-1.0239372e-09
-1.6559654e-09
-3.0915073e-09
-5.7773134e-09
-1.3190752e-11
-6.8391444e-11
-1.1512947e-10
-1.7926392e-10
-2.5138932e-10
-3.5090538e-10
-5.0550989e-10
-7.428222e-10
-1.1274738e-09
-1.7981645e-09
-3.3083019e-09
-5.9685427e-09
-1.3683611e-11
-7.5513248e-11
-1.2281762e-10
-1.8454584e-10
-2.596694e-10
-3.7053318e-10
-5.3042552e-10
-7.7088497e-10
-1.1719872e-09
-1.844731e-09
-3.3230232e-09
-5.9266743e-09
-1.3058126e-11
-7.2039872e-11
-1.1708833e-10
-1.7594333e-10
-2.4756517e-10
-3.5246425e-10
-5.0550133e-10
-7.1901111e-10
-1.0683822e-09
-1.7877646e-09
-3.0370153e-09
-5.3919148e-09
-9.9502026e-12
-5.4894036e-11
-8.9144056e-11
-1.3386712e-10
-1.8803017e-10
-2.6684092e-10
-3.8206633e-10
-5.4291251e-10
-7.849226e-10
-1.3625907e-09
-2.2350728e-09
-3.9442009e-09
-4.5322338e-12
-2.5129589e-11
-4.0827959e-11
-6.1319317e-11
-8.6119735e-11
-1.2215821e-10
-1.7693113e-10
-2.4902584e-10
-3.4270479e-10
-6.2741727e-10
-1.0125674e-09
-1.7662727e-09
-1.5536458e-10
-1.4698412e-10
-2.0055332e-10
-2.2515611e-10
-2.3693709e-10
-2.3660886e-10
-2.3049471e-10
-2.1848009e-10
-2.0484086e-10
-1.9133588e-10
-1.7828931e-10
-1.6657066e-10
-1.545245e-10
-1.4280947e-10
-1.3366814e-10
-1.2477948e-10
-1.1687089e-10
-1.0902329e-10
-1.0225711e-10
-9.6382963e-11
-9.0580449e-11
-8.5354043e-11
-8.0729083e-11
-7.6566122e-11
-7.2573885e-11
-6.8774334e-11
-6.287272e-11
-6.1990748e-11
-6.1014875e-11
-6.0150323e-11
-5.9423097e-11
-5.8653811e-11
-5.8103055e-11
-5.7544612e-11
-5.7062437e-11
-5.6612255e-11
-5.6292428e-11
-5.5918534e-11
-5.5865448e-11
-5.5748056e-11
-5.5699484e-11
-5.5709278e-11
-5.5794357e-11
-5.5959893e-11
-5.6191417e-11
-5.6478698e-11
-5.6774469e-11
-5.7146681e-11
-5.7558684e-11
-5.8014594e-11
-5.8464651e-11
-5.901033e-11
-5.9442123e-11
-6.0060961e-11
-6.065142e-11
-6.1251835e-11
-6.1832815e-11
-6.2430157e-11
-6.3013441e-11
-6.3590275e-11
-6.4153772e-11
-6.4553266e-11
-6.4958251e-11
-6.5219744e-11
-6.5436289e-11
-6.5523295e-11
-6.5278594e-11
-6.5345995e-11
-6.4866084e-11
-6.4254249e-11
-6.3431409e-11
-6.2346917e-11
-6.0947998e-11
-5.9155022e-11
-5.7354548e-11
-5.4331967e-11
-5.1256676e-11
-4.7621044e-11
-4.3300987e-11
-3.8337479e-11
-3.2549979e-11
-2.4734618e-11
-1.7108479e-11
-6.9857316e-12
4.6191291e-12
1.8412922e-11
3.5050775e-11
5.7118432e-11
-8.9652984e-10
-8.4679208e-10
-1.1572008e-09
-1.3004237e-09
-1.3670602e-09
-1.3690494e-09
-1.3337614e-09
-1.2651195e-09
-1.1857045e-09
-1.108031e-09
-1.0325143e-09
-9.6178617e-10
-8.9403014e-10
-8.299102e-10
-7.7331304e-10
-7.2161432e-10
-6.7460991e-10
-6.3085606e-10
-5.9184294e-10
-5.5699558e-10
-5.2344967e-10
-4.934785e-10
-4.666134e-10
-4.4199673e-10
-4.193553e-10
-3.9815391e-10
-3.6356356e-10
-3.5843031e-10
-3.5311156e-10
-3.4833631e-10
-3.4414231e-10
-3.4000893e-10
-3.3673461e-10
-3.3379897e-10
-3.3126298e-10
-3.2901246e-10
-3.2734357e-10
-3.2587708e-10
-3.2564845e-10
-3.2548539e-10
-3.2570326e-10
-3.2631831e-10
-3.2744945e-10
-3.2900534e-10
-3.3098144e-10
-3.3333836e-10
-3.3596271e-10
-3.3907817e-10
-3.4249545e-10
-3.4616751e-10
-3.5001059e-10
-3.5426279e-10
-3.5850112e-10
-3.6347742e-10
-3.6850829e-10
-3.7376538e-10
-3.7911715e-10
-3.8469019e-10
-3.9048883e-10
-3.9617092e-10
-4.0183264e-10
-4.0717235e-10
-4.1254672e-10
-4.1780735e-10
-4.2262743e-10
-4.2698885e-10
-4.303658e-10
-4.3443678e-10
-4.369542e-10
-4.3862618e-10
-4.3934683e-10
-4.3890852e-10
-4.3707363e-10
-4.3352145e-10
-4.2902227e-10
-4.2022846e-10
-4.1009191e-10
-3.9702078e-10
-3.7994018e-10
-3.5898364e-10
-3.3303458e-10
-2.9821072e-10
-2.5965808e-10
-2.0693016e-10
-1.4314513e-10
-6.3351727e-11
3.8276433e-11
1.7729e-10
-1.8030482e-09
-1.7086858e-09
-2.33949e-09
-2.6368585e-09
-2.7774857e-09
-2.7892921e-09
-2.7224686e-09
-2.5867991e-09
-2.426925e-09
-2.270311e-09
-2.1172197e-09
-1.9719217e-09
-1.8349909e-09
-1.7064012e-09
-1.5887053e-09
-1.4829134e-09
-1.386069e-09
-1.2974771e-09
-1.2176375e-09
-1.1456895e-09
-1.0769568e-09
-1.0156431e-09
-9.604568e-10
-9.0963958e-10
-8.633787e-10
-8.2033432e-10
-7.4901314e-10
-7.3841197e-10
-7.2771916e-10
-7.1806588e-10
-7.0946374e-10
-7.0119644e-10
-6.9441534e-10
-6.8854715e-10
-6.8349918e-10
-6.7913388e-10
-6.7578878e-10
-6.7319158e-10
-6.727403e-10
-6.7274775e-10
-6.7350218e-10
-6.7511455e-10
-6.778332e-10
-6.8140176e-10
-6.8585735e-10
-6.9115027e-10
-6.9712472e-10
-7.0415546e-10
-7.118505e-10
-7.2008137e-10
-7.2880858e-10
-7.3828605e-10
-7.4816978e-10
-7.5933398e-10
-7.7077325e-10
-7.828017e-10
-7.9518285e-10
-8.0810999e-10
-8.2173746e-10
-8.3506685e-10
-8.4847273e-10
-8.6160454e-10
-8.74839e-10
-8.8835576e-10
-9.0087376e-10
-9.1272073e-10
-9.2321936e-10
-9.3431793e-10
-9.4354131e-10
-9.5095952e-10
-9.5666556e-10
-9.6031131e-10
-9.6146276e-10
-9.5960836e-10
-9.552117e-10
-9.4417743e-10
-9.2968967e-10
-9.0959608e-10
-8.8152936e-10
-8.4553859e-10
-7.9949747e-10
-7.3771568e-10
-6.6497427e-10
-5.6430492e-10
-4.3975321e-10
-2.8083096e-10
-7.4528342e-11
2.0963311e-10
-2.7705545e-09
-2.6481852e-09
-3.6317794e-09
-4.1122716e-09
-4.3475364e-09
-4.3819942e-09
-4.290226e-09
-4.0872166e-09
-3.8420174e-09
-3.599955e-09
-3.361692e-09
-3.1336623e-09
-2.919503e-09
-2.718686e-09
-2.531812e-09
-2.3647078e-09
-2.2111255e-09
-2.0714751e-09
-1.9449361e-09
-1.8303933e-09
-1.7212895e-09
-1.6239406e-09
-1.5361431e-09
-1.4551089e-09
-1.3815772e-09
-1.3133818e-09
-1.1995315e-09
-1.1825803e-09
-1.1657462e-09
-1.1505233e-09
-1.1368707e-09
-1.1239e-09
-1.113096e-09
-1.1038819e-09
-1.0959955e-09
-1.0892783e-09
-1.0840471e-09
-1.0802126e-09
-1.0795325e-09
-1.0798611e-09
-1.0813391e-09
-1.0842186e-09
-1.0889083e-09
-1.0949421e-09
-1.1024164e-09
-1.1112877e-09
-1.1213493e-09
-1.1331558e-09
-1.1460675e-09
-1.1598686e-09
-1.174589e-09
-1.1904692e-09
-1.2073382e-09
-1.2261058e-09
-1.2454476e-09
-1.2658557e-09
-1.286985e-09
-1.3090939e-09
-1.3325628e-09
-1.3555337e-09
-1.3787879e-09
-1.4019224e-09
-1.4252959e-09
-1.4496001e-09
-1.4722756e-09
-1.4941603e-09
-1.5144681e-09
-1.5351634e-09
-1.5540221e-09
-1.5699929e-09
-1.583485e-09
-1.5940299e-09
-1.6009757e-09
-1.6037165e-09
-1.6020015e-09
-1.5914611e-09
-1.5750113e-09
-1.5500674e-09
-1.512926e-09
-1.4632643e-09
-1.3979534e-09
-1.3096469e-09
-1.2016138e-09
-1.0506948e-09
-8.612881e-10
-6.1675302e-10
-2.9608468e-10
1.4611611e-10
-3.7479305e-09
-3.6316236e-09
-4.9852347e-09
-5.6773617e-09
-6.0304497e-09
-6.104775e-09
-5.9998995e-09
-5.7347251e-09
-5.4042071e-09
-5.0741296e-09
-4.7464439e-09
-4.4304209e-09
-4.1332959e-09
-3.8543564e-09
-3.592045e-09
-3.3577987e-09
-3.1417978e-09
-2.945804e-09
-2.7675291e-09
-2.6056389e-09
-2.4516128e-09
-2.3140644e-09
-2.189833e-09
-2.0749901e-09
-1.9708846e-09
-1.874518e-09
-1.712833e-09
-1.6887553e-09
-1.6650952e-09
-1.6437031e-09
-1.6244565e-09
-1.6062858e-09
-1.5910239e-09
-1.5781151e-09
-1.567121e-09
-1.5578619e-09
-1.550598e-09
-1.5454444e-09
-1.5445631e-09
-1.5453877e-09
-1.5478067e-09
-1.5522389e-09
-1.5593023e-09
-1.5682682e-09
-1.5793131e-09
-1.5924137e-09
-1.6073069e-09
-1.6247567e-09
-1.6438322e-09
-1.6642264e-09
-1.6860582e-09
-1.7095421e-09
-1.7347417e-09
-1.7625635e-09
-1.7913244e-09
-1.8217457e-09
-1.8533678e-09
-1.8865215e-09
-1.9218847e-09
-1.9565478e-09
-1.9918104e-09
-2.0272163e-09
-2.0630823e-09
-2.1007793e-09
-2.1361606e-09
-2.1707215e-09
-2.2035934e-09
-2.2366247e-09
-2.2681342e-09
-2.2955919e-09
-2.3198031e-09
-2.3402008e-09
-2.3558907e-09
-2.3662858e-09
-2.3700619e-09
-2.3628172e-09
-2.3469885e-09
-2.3195443e-09
-2.2754632e-09
-2.2137398e-09
-2.1302313e-09
-2.0159572e-09
-1.8720111e-09
-1.6689726e-09
-1.4112653e-09
-1.0755482e-09
-6.3219176e-10
-2.0626313e-11
-4.6765233e-09
-4.6175222e-09
-6.3384125e-09
-7.2667755e-09
-7.7606883e-09
-7.8950436e-09
-7.793265e-09
-7.4767552e-09
-7.0665557e-09
-6.6508049e-09
-6.2338445e-09
-5.8284825e-09
-5.4460744e-09
-5.0860862e-09
-4.7448136e-09
-4.4398725e-09
-4.1578185e-09
-3.9019302e-09
-3.6684355e-09
-3.4558203e-09
-3.2535752e-09
-3.0727566e-09
-2.9092356e-09
-2.7578742e-09
-2.6206773e-09
-2.4938166e-09
-2.2801221e-09
-2.2483649e-09
-2.2173905e-09
-2.1894191e-09
-2.1642183e-09
-2.1405165e-09
-2.120511e-09
-2.1036918e-09
-2.0894374e-09
-2.0775501e-09
-2.0682103e-09
-2.0617344e-09
-2.0607313e-09
-2.0622648e-09
-2.0658858e-09
-2.0721796e-09
-2.082033e-09
-2.0944002e-09
-2.109558e-09
-2.1275169e-09
-2.1479572e-09
-2.1718788e-09
-2.1980191e-09
-2.2259782e-09
-2.2559817e-09
-2.2882119e-09
-2.3230143e-09
-2.3612742e-09
-2.4008922e-09
-2.4428757e-09
-2.486644e-09
-2.5326112e-09
-2.5818189e-09
-2.6301316e-09
-2.6794636e-09
-2.7293088e-09
-2.7799267e-09
-2.8335175e-09
-2.8840591e-09
-2.9338404e-09
-2.9819292e-09
-3.0299777e-09
-3.0770553e-09
-3.1188643e-09
-3.1566699e-09
-3.1898285e-09
-3.2171807e-09
-3.23828e-09
-3.2504013e-09
-3.2492734e-09
-3.2367534e-09
-3.2093195e-09
-3.1606776e-09
-3.0888536e-09
-2.9886991e-09
-2.8496216e-09
-2.6701215e-09
-2.4144313e-09
-2.0868159e-09
-1.6569392e-09
-1.0862653e-09
-2.9932231e-10
-5.5690997e-09
-5.6484729e-09
-7.7439429e-09
-8.9514167e-09
-9.6233277e-09
-9.848569e-09
-9.772667e-09
-9.4187463e-09
-8.9346462e-09
-8.4340214e-09
-7.9252306e-09
-7.4257187e-09
-6.9519373e-09
-6.5039786e-09
-6.0760221e-09
-5.6928309e-09
-5.3372184e-09
-5.0142001e-09
-4.7185176e-09
-4.4485126e-09
-4.1915523e-09
-3.9614732e-09
-3.7531094e-09
-3.5599829e-09
-3.3848609e-09
-3.2230203e-09
-2.9493183e-09
-2.9088603e-09
-2.8696271e-09
-2.8342694e-09
-2.8024109e-09
-2.7725298e-09
-2.7472311e-09
-2.7260882e-09
-2.7082721e-09
-2.6935711e-09
-2.6820657e-09
-2.6742715e-09
-2.6733159e-09
-2.675931e-09
-2.6812373e-09
-2.6899715e-09
-2.7033852e-09
-2.7200254e-09
-2.7403019e-09
-2.7642757e-09
-2.7915713e-09
-2.8234749e-09
-2.8583179e-09
-2.8955982e-09
-2.9356781e-09
-2.9787021e-09
-3.0253681e-09
-3.0765317e-09
-3.1295628e-09
-3.185847e-09
-3.2446645e-09
-3.3065352e-09
-3.3729688e-09
-3.4383089e-09
-3.5052402e-09
-3.573207e-09
-3.6423962e-09
-3.7160718e-09
-3.785852e-09
-3.8550419e-09
-3.9226515e-09
-3.990067e-09
-4.0573608e-09
-4.1180111e-09
-4.1738626e-09
-4.2242067e-09
-4.2675719e-09
-4.3038121e-09
-4.3283245e-09
-4.3371198e-09
-4.3313698e-09
-4.306975e-09
-4.256318e-09
-4.1760684e-09
-4.0600149e-09
-3.8958368e-09
-3.678921e-09
-3.3665379e-09
-2.9626135e-09
-2.4291047e-09
-1.7177314e-09
-7.3773786e-10
-6.277008e-09
-6.5829589e-09
-9.0041823e-09
-1.0497679e-08
-1.1365401e-08
-1.1706005e-08
-1.167963e-08
-1.1311966e-08
-1.0773387e-08
-1.0202751e-08
-9.6137739e-09
-9.0291595e-09
-8.4709708e-09
-7.9403161e-09
-7.4296919e-09
-6.9710772e-09
-6.5440289e-09
-6.1553037e-09
-5.7983839e-09
-5.4715669e-09
-5.1602244e-09
-4.8810059e-09
-4.6277624e-09
-4.392734e-09
-4.179486e-09
-3.9824252e-09
-3.6478515e-09
-3.5988168e-09
-3.5514615e-09
-3.5088882e-09
-3.4705649e-09
-3.4346955e-09
-3.4042831e-09
-3.3790259e-09
-3.3578814e-09
-3.3406282e-09
-3.3272495e-09
-3.3184305e-09
-3.3178207e-09
-3.3218921e-09
-3.3293241e-09
-3.3409557e-09
-3.3584613e-09
-3.3799269e-09
-3.4059192e-09
-3.4365597e-09
-3.4714275e-09
-3.5121217e-09
-3.5565307e-09
-3.6040519e-09
-3.6552029e-09
-3.7100918e-09
-3.7698016e-09
-3.8351612e-09
-3.9029385e-09
-3.9749539e-09
-4.0503453e-09
-4.1297526e-09
-4.2152154e-09
-4.299406e-09
-4.3858617e-09
-4.4739839e-09
-4.5638832e-09
-4.6600231e-09
-4.7513931e-09
-4.8424465e-09
-4.9321384e-09
-5.0215702e-09
-5.111961e-09
-5.1943044e-09
-5.271113e-09
-5.3416232e-09
-5.4040351e-09
-5.4586533e-09
-5.4986898e-09
-5.5205418e-09
-5.5246856e-09
-5.5064234e-09
-5.4569012e-09
-5.3711673e-09
-5.242005e-09
-5.0554058e-09
-4.8035217e-09
-4.4367594e-09
-3.9584954e-09
-3.3231532e-09
-2.4729271e-09
-1.3033536e-09
-6.8321438e-09
-7.445844e-09
-1.0166792e-08
-1.1962678e-08
-1.3053595e-08
-1.3542139e-08
-1.3592719e-08
-1.3237941e-08
-1.26651e-08
-1.2038892e-08
-1.1379994e-08
-1.071726e-08
-1.0079271e-08
-9.4685682e-09
-8.8764268e-09
-8.3424238e-09
-7.8432835e-09
-7.3876608e-09
-6.9678853e-09
-6.5824174e-09
-6.2146397e-09
-5.8842213e-09
-5.5840251e-09
-5.3050301e-09
-5.051705e-09
-4.8175449e-09
-4.4182381e-09
-4.3604483e-09
-4.3048283e-09
-4.2549727e-09
-4.210179e-09
-4.1683391e-09
-4.1328619e-09
-4.1036295e-09
-4.0793641e-09
-4.0598341e-09
-4.0449317e-09
-4.0354993e-09
-4.0357306e-09
-4.0418753e-09
-4.0521676e-09
-4.0675103e-09
-4.0900786e-09
-4.1173996e-09
-4.1502432e-09
-4.1888004e-09
-4.2326144e-09
-4.2836529e-09
-4.339291e-09
-4.398819e-09
-4.4629425e-09
-4.5317351e-09
-4.6067252e-09
-4.6887189e-09
-4.7737658e-09
-4.8642064e-09
-4.9590244e-09
-5.059005e-09
-5.166823e-09
-5.2731979e-09
-5.3826699e-09
-5.494602e-09
-5.6090224e-09
-5.7318272e-09
-5.8488955e-09
-5.9660566e-09
-6.0822002e-09
-6.1981216e-09
-6.3164204e-09
-6.4251236e-09
-6.5275801e-09
-6.6229677e-09
-6.7091177e-09
-6.7869869e-09
-6.8471127e-09
-6.8863957e-09
-6.9045737e-09
-6.8962836e-09
-6.8514353e-09
-6.7630501e-09
-6.622875e-09
-6.4150948e-09
-6.1283144e-09
-5.7056306e-09
-5.1495175e-09
-4.4065017e-09
-3.4087031e-09
-2.0386531e-09
-7.2002498e-09
-8.1807708e-09
-1.1171717e-08
-1.3273014e-08
-1.4609346e-08
-1.5277883e-08
-1.5433964e-08
-1.5124473e-08
-1.4544208e-08
-1.3883362e-08
-1.3170951e-08
-1.2442736e-08
-1.1734703e-08
-1.105119e-08
-1.0382914e-08
-9.777171e-09
-9.2084856e-09
-8.687658e-09
-8.2059007e-09
-7.7621902e-09
-7.33798e-09
-6.9561215e-09
-6.6085011e-09
-6.2849278e-09
-5.990904e-09
-5.7189685e-09
-5.2528904e-09
-5.1865973e-09
-5.1230062e-09
-5.0662126e-09
-5.0153294e-09
-4.9679127e-09
-4.9277721e-09
-4.8950438e-09
-4.8681944e-09
-4.8469735e-09
-4.8312e-09
-4.821871e-09
-4.8237273e-09
-4.8328201e-09
-4.84696e-09
-4.8670942e-09
-4.8959775e-09
-4.9304469e-09
-4.9715416e-09
-5.0195292e-09
-5.0739252e-09
-5.137135e-09
-5.2059433e-09
-5.2795279e-09
-5.3588213e-09
-5.4438662e-09
-5.5367053e-09
-5.6381236e-09
-5.743331e-09
-5.8552755e-09
-5.9727757e-09
-6.0967953e-09
-6.2307636e-09
-6.3631282e-09
-6.4996068e-09
-6.6395294e-09
-6.7828377e-09
-6.9371299e-09
-7.0846245e-09
-7.2327859e-09
-7.380424e-09
-7.5280168e-09
-7.6798172e-09
-7.8203104e-09
-7.9538947e-09
-8.0796783e-09
-8.1950818e-09
-8.3019561e-09
-8.3875898e-09
-8.4495063e-09
-8.4866742e-09
-8.4929703e-09
-8.4570924e-09
-8.3695473e-09
-8.2209725e-09
-7.9935893e-09
-7.6721425e-09
-7.191835e-09
-6.5537714e-09
-5.6961839e-09
-4.5403713e-09
-2.9567411e-09
-7.4296371e-09
-8.739469e-09
-1.1967906e-08
-1.4363023e-08
-1.5959696e-08
-1.6833874e-08
-1.7124704e-08
-1.6895886e-08
-1.6340159e-08
-1.5671302e-08
-1.4927528e-08
-1.4151992e-08
-1.3388859e-08
-1.264454e-08
-1.1910007e-08
-1.1240098e-08
-1.0607921e-08
-1.0026812e-08
-9.486804e-09
-8.9878293e-09
-8.5095792e-09
-8.0781834e-09
-7.6845717e-09
-7.3175453e-09
-6.9838071e-09
-6.6748862e-09
-6.1422526e-09
-6.0682138e-09
-5.9974795e-09
-5.934603e-09
-5.8784844e-09
-5.8263444e-09
-5.782386e-09
-5.7470701e-09
-5.718591e-09
-5.6966589e-09
-5.6810493e-09
-5.6729297e-09
-5.6775737e-09
-5.6908443e-09
-5.7101493e-09
-5.7364999e-09
-5.7733229e-09
-5.8165877e-09
-5.8676878e-09
-5.9269791e-09
-5.9939513e-09
-6.0715334e-09
-6.1558292e-09
-6.2459064e-09
-6.34297e-09
-6.4470369e-09
-6.5607441e-09
-6.6848533e-09
-6.813606e-09
-6.9506533e-09
-7.0946328e-09
-7.2467317e-09
-7.4112749e-09
-7.5740633e-09
-7.742201e-09
-7.9149929e-09
-8.0922888e-09
-8.2837076e-09
-8.4671673e-09
-8.6520657e-09
-8.8371172e-09
-9.0224723e-09
-9.2143629e-09
-9.3930511e-09
-9.5642316e-09
-9.7269277e-09
-9.8781119e-09
-1.0020804e-08
-1.0138357e-08
-1.0229054e-08
-1.0291059e-08
-1.0317339e-08
-1.0295448e-08
-1.0212757e-08
-1.005865e-08
-9.8132055e-09
-9.4569398e-09
-8.9162983e-09
-8.1905512e-09
-7.2090695e-09
-5.8812507e-09
-4.066023e-09
-7.4321237e-09
-9.0914313e-09
-1.2518772e-08
-1.5183388e-08
-1.704422e-08
-1.8140377e-08
-1.8594061e-08
-1.8481141e-08
-1.7984724e-08
-1.7338585e-08
-1.6590201e-08
-1.5790253e-08
-1.4991631e-08
-1.420295e-08
-1.341636e-08
-1.2693723e-08
-1.200761e-08
-1.1374395e-08
-1.0782897e-08
-1.0234301e-08
-9.7069348e-09
-9.2302079e-09
-8.7941049e-09
-8.3866442e-09
-8.0159445e-09
-7.6724564e-09
-7.0760149e-09
-6.9955337e-09
-6.9190866e-09
-6.8515677e-09
-6.7916009e-09
-6.7361127e-09
-6.6897061e-09
-6.6532158e-09
-6.6245526e-09
-6.603355e-09
-6.5893943e-09
-6.5840514e-09
-6.5931038e-09
-6.6122352e-09
-6.6384376e-09
-6.6728512e-09
-6.7196994e-09
-6.7738508e-09
-6.8371558e-09
-6.9100826e-09
-6.9920877e-09
-7.0867273e-09
-7.1893121e-09
-7.2988142e-09
-7.4167685e-09
-7.5431697e-09
-7.6813446e-09
-7.8320213e-09
-7.9883349e-09
-8.15475e-09
-8.3296963e-09
-8.5146445e-09
-8.7149847e-09
-8.9134233e-09
-9.1187043e-09
-9.3301168e-09
-9.5474101e-09
-9.7826041e-09
-1.0008563e-08
-1.0236961e-08
-1.0466407e-08
-1.0696704e-08
-1.0936448e-08
-1.1160888e-08
-1.1377274e-08
-1.1584534e-08
-1.177917e-08
-1.1965642e-08
-1.2122571e-08
-1.224917e-08
-1.2342704e-08
-1.2395041e-08
-1.2392729e-08
-1.2319119e-08
-1.2162203e-08
-1.1899721e-08
-1.150735e-08
-1.0901718e-08
-1.007986e-08
-8.9613031e-09
-7.4424761e-09
-5.3712311e-09
-7.2648606e-09
-9.2229432e-09
-1.2806577e-08
-1.5706713e-08
-1.7820202e-08
-1.9147369e-08
-1.9787068e-08
-1.9822274e-08
-1.9419951e-08
-1.8829126e-08
-1.8105713e-08
-1.7307596e-08
-1.6496633e-08
-1.5683605e-08
-1.4862782e-08
-1.410221e-08
-1.3374844e-08
-1.2700553e-08
-1.206726e-08
-1.1477139e-08
-1.0907988e-08
-1.0392367e-08
-9.9192929e-09
-9.476279e-09
-9.0731298e-09
-8.6991242e-09
-8.0441937e-09
-7.9591029e-09
-7.8789883e-09
-7.8088748e-09
-7.7469848e-09
-7.6900609e-09
-7.643142e-09
-7.6074314e-09
-7.5805513e-09
-7.5620298e-09
-7.5516853e-09
-7.551181e-09
-7.5667587e-09
-7.5939458e-09
-7.6292506e-09
-7.6740449e-09
-7.7335161e-09
-7.8011427e-09
-7.8793482e-09
-7.9687577e-09
-8.06878e-09
-8.1837232e-09
-8.3079523e-09
-8.4403791e-09
-8.5829399e-09
-8.7356085e-09
-8.9025116e-09
-9.0843281e-09
-9.2729305e-09
-9.4737338e-09
-9.6849137e-09
-9.9082995e-09
-1.0150549e-08
-1.0390746e-08
-1.0639576e-08
-1.089632e-08
-1.1160615e-08
-1.1447331e-08
-1.1723393e-08
-1.2003151e-08
-1.2285097e-08
-1.2568652e-08
-1.2865228e-08
-1.3144156e-08
-1.3414493e-08
-1.3675099e-08
-1.3921966e-08
-1.4161228e-08
-1.4365939e-08
-1.453638e-08
-1.4668722e-08
-1.4753642e-08
-1.477668e-08
-1.4716138e-08
-1.4558625e-08
-1.4279028e-08
-1.3847759e-08
-1.3170236e-08
-1.224066e-08
-1.0967874e-08
-9.2336867e-09
-6.8759336e-09
-6.8925495e-09
-9.0982661e-09
-1.2796717e-08
-1.5902769e-08
-1.8268068e-08
-1.9849549e-08
-2.0713462e-08
-2.0944966e-08
-2.0686147e-08
-2.019624e-08
-1.9538266e-08
-1.8777033e-08
-1.7984114e-08
-1.7172364e-08
-1.6339506e-08
-1.5558953e-08
-1.4805185e-08
-1.4102476e-08
-1.3438309e-08
-1.2815544e-08
-1.2212124e-08
-1.1664291e-08
-1.1159749e-08
-1.0685863e-08
-1.0254716e-08
-9.8541276e-09
-9.1445475e-09
-9.0573008e-09
-8.9764931e-09
-8.9068626e-09
-8.8459235e-09
-8.7905243e-09
-8.7462551e-09
-8.7145918e-09
-8.6928374e-09
-8.680371e-09
-8.6771404e-09
-8.6852354e-09
-8.7113563e-09
-8.7509126e-09
-8.7997155e-09
-8.8595505e-09
-8.9369514e-09
-9.0234018e-09
-9.1221339e-09
-9.234037e-09
-9.3584518e-09
-9.5007001e-09
-9.6538441e-09
-9.8167932e-09
-9.992044e-09
-1.0179544e-08
-1.0384457e-08
-1.0607385e-08
-1.0838581e-08
-1.1084723e-08
-1.134362e-08
-1.1617606e-08
-1.1915039e-08
-1.2210228e-08
-1.2516447e-08
-1.2832971e-08
-1.3159297e-08
-1.3514096e-08
-1.3856427e-08
-1.4204191e-08
-1.4555717e-08
-1.4909946e-08
-1.5282086e-08
-1.5633543e-08
-1.5975756e-08
-1.6307602e-08
-1.662429e-08
-1.6934226e-08
-1.7203199e-08
-1.7432614e-08
-1.7617629e-08
-1.7747169e-08
-1.7805557e-08
-1.776469e-08
-1.7608858e-08
-1.7309271e-08
-1.6829723e-08
-1.6060908e-08
-1.4993142e-08
-1.3521196e-08
-1.1509646e-08
-8.787138e-09
-6.3786807e-09
-8.7221186e-09
-1.2466468e-08
-1.5709639e-08
-1.8278481e-08
-2.0091743e-08
-2.1180419e-08
-2.1626016e-08
-2.1540538e-08
-2.118626e-08
-2.0629752e-08
-1.9940782e-08
-1.9199608e-08
-1.8420423e-08
-1.7605319e-08
-1.6830987e-08
-1.6074364e-08
-1.5364684e-08
-1.4689041e-08
-1.4051708e-08
-1.3429908e-08
-1.2864683e-08
-1.2341841e-08
-1.1849067e-08
-1.1401198e-08
-1.0984382e-08
-1.0235609e-08
-1.0149999e-08
-1.0072924e-08
-1.0008092e-08
-9.9519643e-09
-9.9021745e-09
-9.8648077e-09
-9.8412596e-09
-9.8285626e-09
-9.8259951e-09
-9.8337204e-09
-9.8543705e-09
-9.8950554e-09
-9.9511401e-09
-1.0017509e-08
-1.0096537e-08
-1.0196469e-08
-1.0306192e-08
-1.0429965e-08
-1.05691e-08
-1.072286e-08
-1.0897778e-08
-1.1085301e-08
-1.1284409e-08
-1.1498291e-08
-1.1726859e-08
-1.1976469e-08
-1.224762e-08
-1.2528724e-08
-1.2827962e-08
-1.3142658e-08
-1.3475759e-08
-1.3837641e-08
-1.4197051e-08
-1.4570298e-08
-1.4956637e-08
-1.5355452e-08
-1.5789824e-08
-1.6209597e-08
-1.6636868e-08
-1.7069711e-08
-1.7506642e-08
-1.7967171e-08
-1.8403599e-08
-1.8830094e-08
-1.9245524e-08
-1.9644438e-08
-2.0037843e-08
-2.03829e-08
-2.0682496e-08
-2.0930329e-08
-2.1113367e-08
-2.1214269e-08
-2.1196937e-08
-2.1043762e-08
-2.0720644e-08
-2.0183652e-08
-1.930706e-08
-1.8077026e-08
-1.637265e-08
-1.4039482e-08
-1.090038e-08
-5.761996e-09
-8.1476891e-09
-1.1877286e-08
-1.5196868e-08
-1.7923521e-08
-1.994318e-08
-2.1251233e-08
-2.1921351e-08
-2.2031453e-08
-2.184123e-08
-2.1417106e-08
-2.0831698e-08
-2.0172817e-08
-1.9455045e-08
-1.8685571e-08
-1.794229e-08
-1.7205274e-08
-1.650942e-08
-1.5840815e-08
-1.520716e-08
-1.4582417e-08
-1.4014578e-08
-1.3486588e-08
-1.2986928e-08
-1.2533782e-08
-1.2111287e-08
-1.1338975e-08
-1.1258969e-08
-1.1190453e-08
-1.1134961e-08
-1.1087728e-08
-1.1048273e-08
-1.1022654e-08
-1.1011757e-08
-1.1012501e-08
-1.1024201e-08
-1.1047308e-08
-1.1085076e-08
-1.1145058e-08
-1.1222617e-08
-1.1311409e-08
-1.1414608e-08
-1.1542654e-08
-1.1680996e-08
-1.1835228e-08
-1.2007348e-08
-1.2196501e-08
-1.2410674e-08
-1.2639336e-08
-1.2881588e-08
-1.3141439e-08
-1.341875e-08
-1.3721259e-08
-1.4049356e-08
-1.4389337e-08
-1.4751181e-08
-1.513157e-08
-1.5534169e-08
-1.5971778e-08
-1.640662e-08
-1.6858533e-08
-1.7326773e-08
-1.7810605e-08
-1.8338262e-08
-1.8848751e-08
-1.9369154e-08
-1.9897484e-08
-2.0431598e-08
-2.0996138e-08
-2.1532758e-08
-2.2058755e-08
-2.2572998e-08
-2.3069004e-08
-2.3561037e-08
-2.3995917e-08
-2.4377555e-08
-2.4698604e-08
-2.4943631e-08
-2.5092829e-08
-2.5100667e-08
-2.4947265e-08
-2.4592677e-08
-2.3984228e-08
-2.297571e-08
-2.1550174e-08
-1.9569762e-08
-1.6859096e-08
-1.3238071e-08
-4.9350248e-09
-7.2574335e-09
-1.0891764e-08
-1.4221922e-08
-1.7068112e-08
-1.9286278e-08
-2.0832265e-08
-2.1767292e-08
-2.2125441e-08
-2.2157366e-08
-2.1924016e-08
-2.1498128e-08
-2.0974547e-08
-2.0366556e-08
-1.9688052e-08
-1.9015311e-08
-1.8332593e-08
-1.7682513e-08
-1.7048921e-08
-1.644528e-08
-1.5841363e-08
-1.5291642e-08
-1.47775e-08
-1.4287878e-08
-1.3846093e-08
-1.3433164e-08
-1.2657562e-08
-1.2590362e-08
-1.2539496e-08
-1.2501544e-08
-1.2471196e-08
-1.2452099e-08
-1.2447993e-08
-1.2458987e-08
-1.2482416e-08
-1.2517919e-08
-1.2566287e-08
-1.2631503e-08
-1.2721893e-08
-1.2832784e-08
-1.2955787e-08
-1.3095546e-08