/*--------------------------------*- C++ -*----------------------------------*\
| =========                 |                                                 |
| \\      /  F ield         | OpenFOAM: The Open Source CFD Toolbox           |
|  \\    /   O peration     | Version:  2406                                  |
|   \\  /    A nd           | Website:  www.openfoam.com                      |
|    \\/     M anipulation  |                                                 |
\*---------------------------------------------------------------------------*/
FoamFile
{
    version     2.0;
    format      ascii;
    arch        "LSB;label=32;scalar=64";
    class       volScalarField;
    location    "0";
    object      initialResidual:Ux;
}
// * * * * * * * * * * * * * * * * * * * * * * * * * * * * * * * * * * * * * //

dimensions      [0 0 0 0 0 0 0];

internalField   nonuniform List<scalar> 
18060
(
-3.8196874e-13
-1.2570362e-13
3.293391e-12
8.0039455e-12
8.4322246e-12
5.1126696e-11
1.9806589e-10
4.3782853e-10
1.1739584e-09
4.5403682e-09
1.3029108e-08
4.1724865e-08
-2.768967e-13
-2.9264094e-13
1.0349093e-11
2.4148348e-11
2.4120034e-11
1.4801738e-10
5.1534187e-10
1.0646149e-09
2.7575434e-09
1.023749e-08
2.8503131e-08
9.1134168e-08
-1.7092854e-13
-2.8367715e-13
1.2243234e-11
2.9345716e-11
3.0121458e-11
1.7571442e-10
5.7930572e-10
1.1676027e-09
3.0489455e-09
1.0918421e-08
2.9145547e-08
9.4399862e-08
-4.1647981e-14
6.8758656e-14
1.0205141e-11
2.9298351e-11
3.2665872e-11
1.7407772e-10
5.6567931e-10
1.14294e-09
3.0529086e-09
1.0522472e-08
2.6890795e-08
8.8687924e-08
5.6548507e-14
3.9704427e-13
7.6610335e-12
2.7688191e-11
3.4952738e-11
1.6151889e-10
5.2066633e-10
1.0711914e-09
2.945208e-09
9.7379461e-09
2.3875038e-08
8.0453188e-08
1.4092364e-13
5.7301749e-13
5.8863208e-12
2.4449286e-11
3.7745511e-11
1.4507336e-10
4.6288103e-10
9.7849975e-10
2.7720134e-09
8.762812e-09
2.0710463e-08
7.1464952e-08
1.8720424e-13
6.5881147e-13
4.2427942e-12
2.000137e-11
4.0782196e-11
1.2646653e-10
3.9867304e-10
8.7316165e-10
2.5426891e-09
7.621952e-09
1.7446795e-08
6.1806771e-08
2.7030354e-13
6.0213714e-13
3.0756283e-12
1.5959907e-11
4.0727774e-11
1.1004391e-10
3.4042086e-10
7.7551514e-10
2.3009755e-09
6.5236311e-09
1.4611543e-08
5.3046754e-08
3.332983e-13
7.0984382e-13
2.4119199e-12
1.1753141e-11
3.5408423e-11
9.7503583e-11
2.8431385e-10
6.8123322e-10
2.042539e-09
5.4558488e-09
1.2090654e-08
4.4966843e-08
3.946049e-13
8.8312484e-13
2.2361612e-12
8.0665512e-12
2.7875446e-11
8.0067142e-11
2.3516585e-10
5.8933511e-10
1.7733721e-09
4.4729941e-09
9.9645419e-09
3.7956628e-08
4.3756728e-13
1.0234276e-12
2.4203969e-12
6.0959633e-12
1.8838534e-11
5.9886283e-11
1.9027816e-10
4.9341293e-10
1.4987315e-09
3.606312e-09
8.2426493e-09
3.135008e-08
4.4940289e-13
1.069721e-12
2.742393e-12
5.9394718e-12
9.5535793e-12
3.8709299e-11
1.4048683e-10
4.0597017e-10
1.1951829e-09
2.877263e-09
6.8668074e-09
2.5014011e-08
4.3073556e-13
8.4708999e-13
2.6590654e-12
5.6008382e-12
9.7691469e-12
2.0164125e-11
8.7947489e-11
3.086852e-10
9.6174071e-10
2.212759e-09
5.4649573e-09
1.960542e-08
2.9332787e-13
5.081254e-13
1.860051e-12
4.3438607e-12
6.4083599e-12
1.1021163e-11
3.8660462e-11
1.7740325e-10
6.7758665e-10
1.6084231e-09
4.2396983e-09
1.4622806e-08
-2.3663107e-14
-2.5820995e-13
-2.8696748e-13
1.4453764e-12
3.4693014e-12
6.0983725e-12
1.3775393e-11
5.272226e-11
3.8303914e-10
1.1109156e-09
3.2025725e-09
1.0853415e-08
-1.4284492e-13
-6.2986109e-13
-1.4420279e-12
7.4326067e-13
2.6147851e-12
4.6280801e-12
1.1597415e-11
2.5728944e-11
1.1159218e-10
6.9008458e-10
2.2605078e-09
7.8101457e-09
-1.0765328e-14
-8.7080496e-13
-1.3852218e-12
9.3691082e-13
3.1508795e-12
5.6669075e-12
1.4316734e-11
2.515863e-11
5.2659757e-11
2.541385e-10
1.360975e-09
4.9411642e-09
1.3999302e-14
-8.4644624e-13
-1.6558582e-12
1.3423387e-12
3.7588137e-12
6.7124229e-12
1.6395304e-11
2.8938232e-11
6.0482043e-11
1.1735936e-10
6.6785068e-10
2.8979838e-09
5.3337855e-14
-8.2540939e-13
-1.3363049e-12
1.4880991e-12
4.7310157e-12
8.0179612e-12
1.8500709e-11
3.3040679e-11
7.2544436e-11
1.1385688e-10
2.9260942e-10
1.375495e-09
-6.2658966e-15
-5.7056441e-13
-8.2413927e-13
1.4314904e-12
4.7998974e-12
9.2998933e-12
2.2086765e-11
3.8684182e-11
7.9376235e-11
1.2859315e-10
2.7215668e-10
6.9640255e-10
4.9846656e-14
-5.9012177e-13
-7.8433874e-13
1.854967e-12
6.0097065e-12
1.1100576e-11
2.4642021e-11
4.340021e-11
9.0580538e-11
1.3678244e-10
3.3083492e-10
7.2948012e-10
2.5170667e-13
-8.3059585e-13
-9.278838e-13
2.7690018e-12
7.9234474e-12
1.3162584e-11
2.7745809e-11
5.0072203e-11
1.0080754e-10
1.5050109e-10
3.9784128e-10
9.0120591e-10
2.466159e-13
-7.0719221e-13
-6.57659e-13
3.1803848e-12
8.9064972e-12
1.5242395e-11
3.1343548e-11
5.6158989e-11
1.1516205e-10
1.8154174e-10
4.2054258e-10
9.033168e-10
2.9085503e-13
-6.7149746e-13
-5.4466017e-13
4.0301911e-12
1.0705526e-11
1.7954316e-11
3.5730118e-11
6.4421456e-11
1.2893874e-10
2.0919301e-10
4.8423923e-10
9.8654554e-10
2.873543e-13
-5.8222412e-13
-1.746043e-13
4.5779872e-12
1.188529e-11
2.0370121e-11
4.0063566e-11
7.1943195e-11
1.4330309e-10
2.4055326e-10
5.2396949e-10
1.0182563e-09
4.9664654e-13
-9.5871088e-13
-5.0348362e-13
6.0732056e-12
1.551747e-11
2.3944167e-11
4.3906177e-11
8.0781312e-11
1.6240282e-10
2.7538861e-10
5.8581048e-10
1.1111323e-09
4.7415888e-13
-8.5861839e-13
-1.8822917e-13
6.7581197e-12
1.751558e-11
2.7026852e-11
4.809589e-11
8.883856e-11
1.7780889e-10
3.0684795e-10
6.3481262e-10
1.1742236e-09
4.4212032e-13
-8.6837825e-13
3.3095017e-13
7.6244852e-12
1.9158565e-11
3.0463993e-11
5.4021312e-11
9.938232e-11
1.9569834e-10
3.457778e-10
6.9096046e-10
1.2432821e-09
4.9975738e-13
-1.0221208e-12
7.1213475e-13
8.4966101e-12
2.061771e-11
3.3411475e-11
5.8476924e-11
1.0791365e-10
2.0931474e-10
3.6780196e-10
7.4605518e-10
1.4060734e-09
3.6470529e-13
-7.0845839e-13
9.4890905e-13
9.2059856e-12
2.3396897e-11
3.7318922e-11
6.1832269e-11
1.1520567e-10
2.2625036e-10
3.9547445e-10
7.8229046e-10
1.5004624e-09
2.0836802e-13
-5.4315329e-13
1.9455935e-12
9.32986e-12
2.196045e-11
3.8669961e-11
6.6684176e-11
1.2253927e-10
2.3276044e-10
4.096519e-10
8.0289905e-10
1.4793992e-09
2.8300602e-13
-5.389568e-13
2.1157275e-12
9.902015e-12
2.2458319e-11
3.9452747e-11
6.790887e-11
1.2413751e-10
2.3745669e-10
4.2028505e-10
7.6801889e-10
1.2632381e-09
-2.6110066e-14
9.7054439e-14
3.1435709e-12
8.9873004e-12
1.8718694e-11
3.7179804e-11
6.8613426e-11
1.232992e-10
2.27054e-10
3.9791029e-10
7.1256906e-10
1.0907723e-09
-6.688873e-14
1.8114923e-13
2.9003609e-12
8.0355625e-12
1.641347e-11
3.2493024e-11
6.1075853e-11
1.0892731e-10
2.0083706e-10
3.4660302e-10
5.6279168e-10
7.2543338e-10
-2.2692875e-13
7.3749462e-13
3.1736629e-12
5.6516528e-12
9.3463126e-12
2.2856481e-11
4.949475e-11
8.7072253e-11
1.4924027e-10
2.4656012e-10
3.5243531e-10
2.4877089e-10
-3.2693192e-14
3.9295504e-13
1.5997856e-12
2.4086759e-12
3.001488e-12
9.1993536e-12
2.2791e-11
3.9837795e-11
6.4642814e-11
8.7238632e-11
2.9321765e-12
-5.1193802e-10
-1.0433211e-13
1.0939174e-13
3.8429148e-13
-3.089293e-12
-9.0663851e-12
-1.2695292e-11
-1.5259039e-11
-2.7464225e-11
-6.4933669e-11
-1.6052605e-10
-4.8880665e-10
-1.4859576e-09
-1.6856185e-13
-1.7113396e-13
-1.538622e-12
-1.1002133e-11
-2.6738882e-11
-4.3691507e-11
-6.6910049e-11
-1.1927326e-10
-2.4202052e-10
-4.9506359e-10
-1.1325978e-09
-2.6260891e-09
3.4543278e-14
-1.7807611e-12
-7.5822589e-12
-1.9812846e-11
-3.979153e-11
-8.0904772e-11
-1.5160598e-10
-2.6217013e-10
-4.8638936e-10
-9.4780334e-10
-1.9438093e-09
-4.1845018e-09
5.8763697e-14
-3.0750928e-12
-1.267792e-11
-3.1980481e-11
-6.4122583e-11
-1.2301435e-10
-2.3624096e-10
-4.4083087e-10
-7.6399544e-10
-1.4218218e-09
-2.8372918e-09
-5.8354979e-09
8.9574314e-14
-4.5635507e-12
-1.8847639e-11
-4.7487421e-11
-9.50837e-11
-1.8248235e-10
-3.3434019e-10
-6.5375946e-10
-1.1507928e-09
-1.9982417e-09
-4.0004895e-09
-7.9197608e-09
1.1374131e-13
-5.7543636e-12
-2.3770884e-11
-5.9854921e-11
-1.1996574e-10
-2.3239671e-10
-4.2221615e-10
-7.9482855e-10
-1.44769e-09
-2.4967138e-09
-4.9366811e-09
-9.6336037e-09
1.6340821e-07
3.0346597e-07
4.635345e-07
6.3574662e-07
7.9995034e-07
9.4593923e-07
1.0684213e-06
1.1677927e-06
1.2395743e-06
1.2887617e-06
1.3196587e-06
1.3350828e-06
1.3375478e-06
1.3294862e-06
1.3119573e-06
1.2879208e-06
1.258763e-06
1.2255838e-06
1.1894138e-06
1.1510772e-06
1.110008e-06
1.0685227e-06
1.0274672e-06
9.8639835e-07
9.4562458e-07
9.0540581e-07
8.2982135e-07
8.2097847e-07
8.1183994e-07
8.0243357e-07
7.9279186e-07
7.8259134e-07
7.7234458e-07
7.6216751e-07
7.5186629e-07
7.4146001e-07
7.3080583e-07
7.1980986e-07
7.09223e-07
6.9861385e-07
6.8799232e-07
6.7737028e-07
6.6618575e-07
6.555828e-07
6.4504428e-07
6.3454421e-07
6.2408864e-07
6.1329305e-07
6.0275164e-07
5.9248007e-07
5.8226631e-07
5.7211138e-07
5.6178315e-07
5.514066e-07
5.414537e-07
5.3156052e-07
5.217251e-07
5.1184138e-07
5.0164822e-07
4.9198375e-07
4.8235865e-07
4.727651e-07
4.6319455e-07
4.530848e-07
4.4356502e-07
4.3404653e-07
4.2451854e-07
4.1497516e-07
4.0489218e-07
3.9522151e-07
3.8556642e-07
3.7584587e-07
3.6604654e-07
3.556555e-07
3.4554283e-07
3.3541389e-07
3.2514138e-07
3.1470671e-07
3.0354525e-07
2.9257961e-07
2.8150837e-07
2.7016834e-07
2.585398e-07
2.4589872e-07
2.3341848e-07
2.2060201e-07
2.0728143e-07
1.9337506e-07
3.5591752e-07
6.6564373e-07
1.0194828e-06
1.4022523e-06
1.7687724e-06
2.0959552e-06
2.3714698e-06
2.5959786e-06
2.7588947e-06
2.871159e-06
2.9423352e-06
2.9786621e-06
2.9857661e-06
2.9690885e-06
2.9310296e-06
2.8781913e-06
2.8137361e-06
2.7401657e-06
2.6597983e-06
2.574504e-06
2.4830553e-06
2.3906268e-06
2.2991231e-06
2.2075707e-06
2.1166676e-06
2.0269995e-06
1.8582636e-06
1.8387306e-06
1.8185607e-06
1.7978172e-06
1.7765764e-06
1.7541295e-06
1.7316138e-06
1.7092818e-06
1.6867125e-06
1.6639522e-06
1.6406913e-06
1.6167343e-06
1.593715e-06
1.5706993e-06
1.5477111e-06
1.5247783e-06
1.5006978e-06
1.477936e-06
1.455378e-06
1.432971e-06
1.4107302e-06
1.3878464e-06
1.3655853e-06
1.3439758e-06
1.3225707e-06
1.3013738e-06
1.2799081e-06
1.2584408e-06
1.237947e-06
1.2176724e-06
1.1976152e-06
1.1775635e-06
1.1570005e-06
1.1376157e-06
1.1184173e-06
1.099393e-06
1.0805252e-06
1.0607223e-06
1.0421959e-06
1.023786e-06
1.0054735e-06
9.8724265e-07
9.6810894e-07
9.4987772e-07
9.3178546e-07
9.1367669e-07
8.9552371e-07
8.7638269e-07
8.578516e-07
8.3937917e-07
8.2071773e-07
8.0182602e-07
7.8167496e-07
7.619155e-07
7.4198037e-07
7.2155723e-07
7.0056976e-07
6.7767222e-07
6.5492643e-07
6.3136918e-07
6.0660183e-07
5.8035814e-07
3.651861e-07
6.9745473e-07
1.076858e-06
1.4911819e-06
1.8917673e-06
2.252671e-06
2.5593895e-06
2.8121082e-06
2.997778e-06
3.1277575e-06
3.2123227e-06
3.2581301e-06
3.2712914e-06
3.2577339e-06
3.2202217e-06
3.1657537e-06
3.0980019e-06
3.0197771e-06
2.9336716e-06
2.8417871e-06
2.7428623e-06
2.6425481e-06
2.5429875e-06
2.4431728e-06
2.3438995e-06
2.2458345e-06
2.0602616e-06
2.039435e-06
2.0178755e-06
1.9956556e-06
1.9728628e-06
1.9487373e-06
1.9245074e-06
1.9004492e-06
1.8761158e-06
1.8515619e-06
1.8264558e-06
1.800589e-06
1.7757273e-06
1.7508697e-06
1.7260446e-06
1.7012837e-06
1.6752921e-06
1.6507346e-06
1.6264096e-06
1.6022629e-06
1.5783135e-06
1.5536936e-06
1.5297687e-06
1.50657e-06
1.4836188e-06
1.460921e-06
1.4379699e-06
1.4150549e-06
1.3932175e-06
1.3716532e-06
1.3503625e-06
1.3291235e-06
1.3073959e-06
1.286966e-06
1.2667844e-06
1.2468417e-06
1.2271199e-06
1.2064883e-06
1.1872527e-06
1.1682025e-06
1.1493207e-06
1.1305909e-06
1.1110121e-06
1.0924359e-06
1.0740762e-06
1.0557756e-06
1.0375077e-06
1.0183322e-06
9.9985243e-07
9.8151264e-07
9.6306463e-07
9.4446642e-07
9.2471312e-07
9.0542375e-07
8.8603287e-07
8.6623516e-07
8.4594175e-07
8.2385031e-07
8.0193294e-07
7.7923217e-07
7.5532616e-07
7.299254e-07
3.3760677e-07
6.6181074e-07
1.0319429e-06
1.4404388e-06
1.8400128e-06
2.2039311e-06
2.5166026e-06
2.7775201e-06
2.9719752e-06
3.1105475e-06
3.2032442e-06
3.2564956e-06
3.2763329e-06
3.2686348e-06
3.2363371e-06
3.1861263e-06
3.121933e-06
3.0466464e-06
2.9629306e-06
2.8729483e-06
2.775536e-06
2.6763258e-06
2.5775329e-06
2.4782229e-06
2.3792303e-06
2.2812554e-06
2.0945146e-06
2.0743826e-06
2.0534642e-06
2.0318341e-06
2.0095847e-06
1.9859747e-06
1.9622109e-06
1.9385715e-06
1.9146245e-06
1.8904289e-06
1.8656606e-06
1.8401146e-06
1.8155381e-06
1.7909498e-06
1.7663816e-06
1.7418659e-06
1.716123e-06
1.6917947e-06
1.6676939e-06
1.6437692e-06
1.620042e-06
1.5956551e-06
1.5719634e-06
1.5489995e-06
1.5262912e-06
1.5038459e-06
1.481165e-06
1.4585375e-06
1.4369922e-06
1.4157358e-06
1.3947704e-06
1.3738796e-06
1.3525362e-06
1.3324957e-06
1.3127269e-06
1.2932225e-06
1.2739653e-06
1.2538568e-06
1.2351454e-06
1.2166496e-06
1.1983544e-06
1.1802441e-06
1.1613549e-06
1.1434757e-06
1.1258448e-06
1.1083106e-06
1.0908477e-06
1.0725612e-06
1.05498e-06
1.0375701e-06
1.0200944e-06
1.00251e-06
9.8386741e-07
9.6569149e-07
9.4744112e-07
9.2882421e-07
9.0974645e-07
8.8897147e-07
8.683382e-07
8.4692614e-07
8.2431031e-07
8.0022864e-07
2.9917706e-07
6.0482229e-07
9.5346536e-07
1.3427996e-06
1.7286812e-06
2.0843809e-06
2.3937202e-06
2.6553709e-06
2.8533914e-06
2.9971406e-06
3.0959817e-06
3.1558773e-06
3.1825637e-06
3.1816734e-06
3.1562392e-06
3.1123779e-06
3.0541835e-06
2.9845404e-06
2.9061123e-06
2.8210604e-06
2.7283644e-06
2.6334615e-06
2.5385798e-06
2.4428963e-06
2.347264e-06
2.2524e-06
2.0700537e-06
2.0513325e-06
2.031787e-06
2.0114899e-06
1.9905366e-06
1.9682295e-06
1.945713e-06
1.9232602e-06
1.9004687e-06
1.8774e-06
1.8537485e-06
1.8293187e-06
1.8057856e-06
1.7822181e-06
1.758651e-06
1.7351169e-06
1.7103889e-06
1.6870073e-06
1.6638354e-06
1.640826e-06
1.6180024e-06
1.5945418e-06
1.5717502e-06
1.5496607e-06
1.527821e-06
1.50624e-06
1.4844402e-06
1.4627016e-06
1.4420135e-06
1.4216148e-06
1.4015089e-06
1.3814898e-06
1.3610554e-06
1.341887e-06
1.3229973e-06
1.3043805e-06
1.2860208e-06
1.2668743e-06
1.2490822e-06
1.2315186e-06
1.2141698e-06
1.1970208e-06
1.1791611e-06
1.1622831e-06
1.145664e-06
1.1291599e-06
1.1127461e-06
1.0955825e-06
1.0791027e-06
1.0628018e-06
1.0464555e-06
1.0300202e-06
1.0126051e-06
9.9562972e-07
9.785819e-07
9.6118239e-07
9.4333383e-07
9.2386316e-07
9.0447775e-07
8.8429925e-07
8.6290532e-07
8.4009928e-07
2.5725852e-07
5.3998818e-07
8.6079054e-07
1.2241198e-06
1.5894688e-06
1.9306591e-06
2.2313217e-06
2.4892079e-06
2.6875512e-06
2.8342665e-06
2.9378639e-06
3.0037049e-06
3.0371089e-06
3.0433517e-06
3.0255116e-06
2.989002e-06
2.9380161e-06
2.8753901e-06
2.8037393e-06
2.7251903e-06
2.638886e-06
2.5499746e-06
2.4606634e-06
2.3702588e-06
2.279621e-06
2.1894746e-06
2.0144931e-06
1.9975586e-06
1.9797725e-06
1.9612011e-06
1.9419418e-06
1.9213541e-06
1.9004977e-06
1.8796374e-06
1.8584077e-06
1.8368718e-06
1.8147476e-06
1.7918531e-06
1.7697625e-06
1.7476104e-06
1.7254344e-06
1.7032673e-06
1.6799539e-06
1.6578925e-06
1.6360151e-06
1.6142796e-06
1.5927106e-06
1.5705323e-06
1.5489812e-06
1.5280911e-06
1.5074362e-06
1.4870266e-06
1.4664124e-06
1.4458601e-06
1.4263063e-06
1.4070325e-06
1.3880428e-06
1.3691442e-06
1.3498645e-06
1.3317909e-06
1.3139916e-06
1.2964621e-06
1.2791879e-06
1.2611888e-06
1.2444778e-06
1.2279956e-06
1.2117294e-06
1.1956647e-06
1.1789493e-06
1.1631669e-06
1.147639e-06
1.1322299e-06
1.116915e-06
1.1009096e-06
1.0855482e-06
1.0703564e-06
1.0551229e-06
1.039803e-06
1.0235609e-06
1.0077145e-06
9.9178046e-07
9.7549134e-07
9.5874792e-07
9.4043283e-07
9.2213737e-07
9.0302486e-07
8.8268016e-07
8.6101231e-07
2.1317836e-07
4.6690728e-07
7.5463241e-07
1.0854052e-06
1.4236374e-06
1.7443208e-06
2.031309e-06
2.2812532e-06
2.4770161e-06
2.6248152e-06
2.7320893e-06
2.8034576e-06
2.8436944e-06
2.8576066e-06
2.84827e-06
2.8202506e-06
2.7777842e-06
2.7236206e-06
2.660281e-06
2.5898274e-06
2.5115887e-06
2.4303317e-06
2.3482138e-06
2.2646916e-06
2.1806227e-06
2.0967326e-06
1.9318755e-06
1.9171332e-06
1.9015211e-06
1.8850934e-06
1.8679479e-06
1.8495156e-06
1.8307491e-06
1.8119009e-06
1.7926512e-06
1.7730638e-06
1.752886e-06
1.7319523e-06
1.7117085e-06
1.6913707e-06
1.6709789e-06
1.6505662e-06
1.6290691e-06
1.6087025e-06
1.5884861e-06
1.5683839e-06
1.5484213e-06
1.5278819e-06
1.5079127e-06
1.4885483e-06
1.4693961e-06
1.4504673e-06
1.4313461e-06
1.4122814e-06
1.3941434e-06
1.3762669e-06
1.3586569e-06
1.3411352e-06
1.3232656e-06
1.3065198e-06
1.2900342e-06
1.2738052e-06
1.2578196e-06
1.2411712e-06
1.225722e-06
1.2104911e-06
1.1954664e-06
1.180634e-06
1.1652064e-06
1.150644e-06
1.1363193e-06
1.1221051e-06
1.1079769e-06
1.0932083e-06
1.0790273e-06
1.0649935e-06
1.0509086e-06
1.0367272e-06
1.0216683e-06
1.0069472e-06
9.9211137e-07
9.7690558e-07
9.6123044e-07
9.4402324e-07
9.2676683e-07
9.0866989e-07
8.8933072e-07
8.6882267e-07
1.7503476e-07
3.9620139e-07
6.5191627e-07
9.4882684e-07
1.2576503e-06
1.5550725e-06
1.8255799e-06
2.0646362e-06
2.2553405e-06
2.4022027e-06
2.5115424e-06
2.5872063e-06
2.6333778e-06
2.6543546e-06
2.6531601e-06
2.6334964e-06
2.599579e-06
2.5540456e-06
2.499293e-06
2.4372972e-06
2.3675686e-06
2.2944583e-06
2.2200531e-06
2.1439573e-06
2.0670175e-06
1.9899537e-06
1.8363762e-06
1.8239145e-06
1.8105775e-06
1.7964018e-06
1.7814847e-06
1.7653319e-06
1.7487822e-06
1.7320742e-06
1.7149354e-06
1.6974295e-06
1.6793349e-06
1.6605033e-06
1.6422424e-06
1.623855e-06
1.6053821e-06
1.5868577e-06
1.5673162e-06
1.5487747e-06
1.530347e-06
1.5120031e-06
1.493769e-06
1.4749915e-06
1.4567211e-06
1.4389928e-06
1.4214496e-06
1.4041036e-06
1.3865748e-06
1.3690928e-06
1.3524573e-06
1.3360598e-06
1.3199058e-06
1.3038326e-06
1.2874407e-06
1.2720807e-06
1.2569609e-06
1.2420781e-06
1.2274203e-06
1.2121567e-06
1.197994e-06
1.1840324e-06
1.1702601e-06
1.1566635e-06
1.1425193e-06
1.1291651e-06
1.1160241e-06
1.1029779e-06
1.0900022e-06
1.0764263e-06
1.0633754e-06
1.0504428e-06
1.037443e-06
1.0243301e-06
1.0103748e-06
9.9669758e-07
9.8287546e-07
9.6866636e-07
9.5397254e-07
9.3778379e-07
9.2148732e-07
9.0433809e-07
8.8595221e-07
8.6661163e-07
1.4007067e-07
3.272108e-07
5.4983134e-07
8.1085219e-07
1.0873204e-06
1.3583441e-06
1.609001e-06
1.8340673e-06
2.0171215e-06
2.1610068e-06
2.2708556e-06
2.3496967e-06
2.4010631e-06
2.4286895e-06
2.4354974e-06
2.4242838e-06
2.3991808e-06
2.3626849e-06
2.3170345e-06
2.2640949e-06
2.2035591e-06
2.1393161e-06
2.0733594e-06
2.0054426e-06
1.9363926e-06
1.8669168e-06
1.7260761e-06
1.7160585e-06
1.7051743e-06
1.6934356e-06
1.6809376e-06
1.6672669e-06
1.6531379e-06
1.6387726e-06
1.6239499e-06
1.6087324e-06
1.592932e-06
1.5764194e-06
1.5603499e-06
1.5441204e-06
1.5277728e-06
1.5113412e-06
1.4939691e-06
1.4774535e-06
1.4610122e-06
1.4446219e-06
1.4283082e-06
1.4114881e-06
1.3951046e-06
1.379193e-06
1.3634355e-06
1.3478446e-06
1.3320803e-06
1.3163501e-06
1.3013759e-06
1.2866116e-06
1.2720632e-06
1.2575849e-06
1.2428173e-06
1.2289776e-06
1.215353e-06
1.2019408e-06
1.1887302e-06
1.1749721e-06
1.1622043e-06
1.1496152e-06
1.1371935e-06
1.1249258e-06
1.1121574e-06
1.1000943e-06
1.0882143e-06
1.0764088e-06
1.0646538e-06
1.0523371e-06
1.040476e-06
1.0287e-06
1.0168374e-06
1.0048421e-06
9.9204012e-07
9.7945314e-07
9.6669043e-07
9.5352534e-07
9.398632e-07
9.2475111e-07
9.0947911e-07
8.9335341e-07
8.7601128e-07
8.5799939e-07
1.0924172e-07
2.6334226e-07
4.5283933e-07
6.7751756e-07
9.2004134e-07
1.1625745e-06
1.3905889e-06
1.5989547e-06
1.7718543e-06
1.9106225e-06
2.0192018e-06
2.0997978e-06
2.1552626e-06
2.1887378e-06
2.2029933e-06
2.1999203e-06
2.1835023e-06
2.1560634e-06
2.1196595e-06
2.0760183e-06
2.0250085e-06
1.9700267e-06
1.9129515e-06
1.8536804e-06
1.7930106e-06
1.7316301e-06
1.6045769e-06
1.5970786e-06
1.5887405e-06
1.5795419e-06
1.5695743e-06
1.5585085e-06
1.5469276e-06
1.5350353e-06
1.522664e-06
1.5098742e-06
1.4965127e-06
1.4824703e-06
1.4687397e-06
1.4548178e-06
1.4407454e-06
1.4265571e-06
1.4115133e-06
1.3971746e-06
1.3828701e-06
1.3685828e-06
1.3543383e-06
1.3396284e-06
1.3252802e-06
1.3113286e-06
1.2974983e-06
1.2838021e-06
1.2699427e-06
1.2561039e-06
1.2429228e-06
1.2299212e-06
1.2171056e-06
1.2043478e-06
1.1913316e-06
1.1791304e-06
1.1671165e-06
1.1552875e-06
1.1436338e-06
1.1314941e-06
1.1202247e-06
1.1091087e-06
1.0981354e-06
1.0872916e-06
1.0759963e-06
1.0653145e-06
1.0547828e-06
1.0443029e-06
1.0338517e-06
1.0228795e-06
1.0122884e-06
1.0017477e-06
9.9109973e-07
9.8029938e-07
9.6873268e-07
9.5731569e-07
9.456927e-07
9.3365559e-07
9.2111268e-07
9.0717434e-07
8.9302831e-07
8.7803563e-07
8.6185579e-07
8.4535708e-07
8.3977349e-08
2.0672096e-07
3.6440866e-07
5.5375514e-07
7.6229974e-07
9.7516372e-07
1.1787105e-06
1.3682518e-06
1.5287939e-06
1.6603901e-06
1.7658537e-06
1.8466038e-06
1.9048137e-06
1.9430271e-06
1.9638179e-06
1.9682109e-06
1.9599784e-06
1.941242e-06
1.913865e-06
1.8794056e-06
1.8378979e-06
1.7922325e-06
1.7441539e-06
1.6936915e-06
1.6416033e-06
1.5885506e-06
1.4758863e-06
1.470891e-06
1.4651039e-06
1.4584622e-06
1.4510519e-06
1.4426283e-06
1.433641e-06
1.4242742e-06
1.4144137e-06
1.4041173e-06
1.3932668e-06
1.3817739e-06
1.3704624e-06
1.3589325e-06
1.347223e-06
1.3353681e-06
1.3227504e-06
1.3106836e-06
1.2986121e-06
1.2865259e-06
1.2744498e-06
1.2619542e-06
1.2497438e-06
1.2378533e-06
1.2260512e-06
1.2143509e-06
1.2024999e-06
1.1906565e-06
1.179369e-06
1.1682301e-06
1.1572465e-06
1.1463091e-06
1.1351472e-06
1.1246819e-06
1.1143751e-06
1.104225e-06
1.0942233e-06
1.0838017e-06
1.0741237e-06
1.0645733e-06
1.0551399e-06
1.0458109e-06
1.0360839e-06
1.0268737e-06
1.0177794e-06
1.0087141e-06
9.9965549e-07
9.9012041e-07
9.8088886e-07
9.7167238e-07
9.6232805e-07
9.5281219e-07
9.4257708e-07
9.3242252e-07
9.2203232e-07
9.1122005e-07
8.9989338e-07
8.8723339e-07
8.7432006e-07
8.6056704e-07
8.4565777e-07
8.3083862e-07
6.4180497e-08
1.5862385e-07
2.8668995e-07
4.4293425e-07
6.1889163e-07
8.017626e-07
9.801138e-07
1.1494525e-06
1.2959197e-06
1.4185575e-06
1.5191651e-06
1.5984482e-06
1.6579343e-06
1.6995886e-06
1.7257545e-06
1.7366629e-06
1.7358211e-06
1.7251265e-06
1.7062357e-06
1.6805293e-06
1.6481775e-06
1.6115723e-06
1.5723083e-06
1.5305299e-06
1.4869476e-06
1.4421888e-06
1.3440646e-06
1.341473e-06
1.3381605e-06
1.334012e-06
1.3291066e-06
1.3232811e-06
1.3168544e-06
1.3099904e-06
1.3026263e-06
1.2948167e-06
1.2864777e-06
1.2775414e-06
1.2686622e-06
1.2595432e-06
1.2502209e-06
1.2407278e-06
1.2305705e-06
1.2208125e-06
1.2110147e-06
1.2011732e-06
1.1913123e-06
1.1810826e-06
1.1710633e-06
1.1612883e-06
1.151571e-06
1.141925e-06
1.1321439e-06
1.1223603e-06
1.1130297e-06
1.1038184e-06
1.0947329e-06
1.0856842e-06
1.0764484e-06
1.0677885e-06
1.0592594e-06
1.0508596e-06
1.0425823e-06
1.0339563e-06
1.0259436e-06
1.0180334e-06
1.0102153e-06
1.002477e-06
9.9439927e-07
9.8673873e-07
9.7915954e-07
9.715879e-07
9.6400136e-07
9.5598678e-07
9.4819657e-07
9.4038581e-07
9.3242534e-07
9.2427602e-07
9.1546049e-07
9.066488e-07
8.9757391e-07
8.880719e-07
8.7803894e-07
8.6674248e-07
8.5514822e-07
8.4271112e-07
8.291495e-07
8.1613245e-07
4.8769964e-08
1.1922475e-07
2.2060654e-07
3.4701491e-07
4.9210792e-07
6.4606676e-07
7.9937026e-07
9.4790687e-07
1.0791634e-06
1.1914522e-06
1.2857101e-06
1.3620284e-06
1.4213471e-06
1.4650922e-06
1.4953541e-06
1.5116659e-06
1.5172278e-06
1.5136996e-06
1.5025234e-06
1.4849023e-06
1.4611073e-06
1.4330557e-06
1.4021806e-06
1.3687218e-06
1.3333348e-06
1.2966072e-06
1.2127733e-06
1.2124207e-06
1.2114407e-06
1.2096562e-06
1.2071375e-06
1.2037979e-06
1.1998324e-06
1.195384e-06
1.1904387e-06
1.1850463e-06
1.179156e-06
1.1727198e-06
1.1662257e-06
1.1594773e-06
1.152508e-06
1.1453485e-06
1.1376277e-06
1.1301614e-06
1.1226246e-06
1.11502e-06
1.1073706e-06
1.0994074e-06
1.0915841e-06
1.083933e-06
1.0763124e-06
1.068736e-06
1.0610437e-06
1.0533422e-06
1.0459931e-06
1.0387364e-06
1.0315791e-06
1.0244514e-06
1.0171782e-06
1.0103608e-06
1.0036487e-06
9.9704053e-07
9.9053082e-07
9.8374834e-07
9.7744784e-07
9.712265e-07
9.6507355e-07
9.5897732e-07
9.5260527e-07
9.4654864e-07
9.4053963e-07
9.3451872e-07
9.2846087e-07
9.2202626e-07
9.1573781e-07
9.0939037e-07
9.028693e-07
8.9614651e-07
8.888125e-07
8.8139517e-07
8.7369453e-07
8.6556268e-07
8.5687646e-07
8.4700881e-07
8.3679293e-07
8.2574031e-07
8.1360217e-07
8.0247825e-07
3.6148538e-08
8.5563243e-08
1.61907e-07
2.5933098e-07
3.7388485e-07
4.9832526e-07
6.2518417e-07
7.5097122e-07
8.6482134e-07
9.6456748e-07
1.0504056e-06
1.1218919e-06
1.1794136e-06
1.2238705e-06
1.2570607e-06
1.2778853e-06
1.2891711e-06
1.2923124e-06
1.2884986e-06
1.2787761e-06
1.2634513e-06
1.2439778e-06
1.2215984e-06
1.1966329e-06
1.1696697e-06
1.1412468e-06
1.0724459e-06
1.0743015e-06
1.0756581e-06
1.0762598e-06
1.0761639e-06
1.0753608e-06
1.0739216e-06
1.0719663e-06
1.0695284e-06
1.0666517e-06
1.0633192e-06
1.0595041e-06
1.055519e-06
1.0512722e-06
1.0467939e-06
1.0421117e-06
1.0369851e-06
1.0319654e-06
1.0268485e-06
1.0216431e-06
1.0163713e-06
1.0108507e-06
1.0053996e-06
1.0000479e-06
9.9470214e-07
9.8937583e-07
9.8395955e-07
9.7853132e-07
9.733501e-07
9.6823611e-07
9.6319634e-07
9.5818257e-07
9.5307317e-07
9.4829108e-07
9.4358928e-07
9.3896677e-07
9.344198e-07
9.2968741e-07
9.2529408e-07
9.2095666e-07
9.1666292e-07
9.1240339e-07
9.0794279e-07
9.0368231e-07
8.9943555e-07
8.9515921e-07
8.9081551e-07
8.8615743e-07
8.815645e-07
8.7686338e-07
8.7196692e-07
8.6686177e-07
8.6121037e-07
8.5539503e-07
8.4927101e-07
8.4270584e-07
8.3559835e-07
8.2739009e-07
8.1874987e-07
8.0928587e-07
7.9877111e-07
7.8979378e-07
2.7276071e-08
6.1514246e-08
1.1807287e-07
1.9209284e-07
2.8119858e-07
3.802468e-07
4.8358293e-07
5.8841849e-07
6.855513e-07
7.7263842e-07
8.4937784e-07
9.1496205e-07
9.6935684e-07
1.013037e-06
1.0475218e-06
1.0712494e-06
1.0866691e-06
1.094923e-06
1.0969715e-06
1.093684e-06
1.0854254e-06
1.0732073e-06
1.0581003e-06
1.0404745e-06
1.0208501e-06
9.9971246e-07
9.4436142e-07
9.4804627e-07
9.5137723e-07
9.5401406e-07
9.5599661e-07
9.5738472e-07
9.5814569e-07
9.5837569e-07
9.5814666e-07
9.5749632e-07
9.5643733e-07
9.549618e-07
9.5322504e-07
9.5122866e-07
9.4899912e-07
9.4656089e-07
9.4379229e-07
9.4100363e-07
9.3809918e-07
9.3509292e-07
9.3200594e-07
9.2873599e-07
9.2547676e-07
9.2225534e-07
9.1902238e-07
9.1579104e-07
9.124987e-07
9.091969e-07
9.0604783e-07
9.029467e-07
8.9990022e-07
8.9688011e-07
8.938157e-07
8.9096102e-07
8.8816588e-07
8.8543014e-07
8.8275166e-07
8.7997218e-07
8.7739943e-07
8.7486143e-07
8.7234428e-07
8.6984541e-07
8.6721947e-07
8.6468052e-07
8.6213171e-07
8.5954024e-07
8.5685793e-07
8.5393249e-07
8.5099228e-07
8.4791826e-07
8.4464079e-07
8.4113536e-07
8.3714904e-07
8.3294046e-07
8.2837691e-07
8.233479e-07
8.1777217e-07
8.1116296e-07
8.0402844e-07
7.9605122e-07
7.8703815e-07
7.8008411e-07
2.0557143e-08
4.3826645e-08
8.4683491e-08
1.3959823e-07
2.0734675e-07
2.8446037e-07
3.6685932e-07
4.5246757e-07
5.3371444e-07
6.0829095e-07
6.7558436e-07
7.3456168e-07
7.8487812e-07
8.2667072e-07
8.6119652e-07
8.8656937e-07
9.0486479e-07
9.1698713e-07
9.2368798e-07
9.2565618e-07
9.2331591e-07
9.1727295e-07
9.0843413e-07
8.971987e-07
8.8401766e-07
8.6932226e-07
8.2610489e-07
8.3131073e-07
8.3631857e-07
8.4070041e-07
8.4447378e-07
8.477685e-07
8.5046205e-07
8.526234e-07
8.5435616e-07
8.5569218e-07
8.5667099e-07
8.5730187e-07
8.5759764e-07
8.5764369e-07
8.5746236e-07
8.5707469e-07
8.5646898e-07
8.5573301e-07
8.5486895e-07
8.5389595e-07
8.5283424e-07
8.5165594e-07
8.504392e-07
8.4920839e-07
8.4795484e-07
8.466907e-07
8.4539701e-07
8.4410031e-07
8.4287103e-07
8.416751e-07
8.4051854e-07
8.3939167e-07
8.382733e-07
8.3725505e-07
8.3627831e-07
8.3534604e-07
8.3445567e-07
8.3354389e-07
8.3271882e-07
8.3190963e-07
8.3110472e-07
8.303085e-07
8.2946251e-07
8.2861156e-07
8.2772723e-07
8.2678666e-07
8.2575727e-07
8.2455135e-07
8.2324251e-07
8.2177354e-07
8.2009044e-07
8.1815413e-07
8.1578791e-07
8.1312145e-07
8.100558e-07
8.0649525e-07
8.0236203e-07
7.9724979e-07
7.9151997e-07
7.849192e-07
7.7728438e-07
7.722178e-07
1.4522637e-08
2.9323278e-08
5.6618897e-08
9.4352227e-08
1.4224704e-07
1.9827653e-07
2.5985075e-07
3.2565914e-07
3.8991764e-07
4.5055978e-07
5.068175e-07
5.575561e-07
6.022078e-07
6.4062958e-07
6.7380479e-07
6.9963781e-07
7.1978796e-07
7.3490883e-07
7.4553896e-07
7.5214901e-07
7.5526885e-07
7.5503158e-07
7.5220117e-07
7.4717658e-07
7.4033056e-07
7.3203029e-07
7.0118176e-07
7.0777227e-07
7.1435022e-07
7.2038019e-07
7.2585734e-07
7.3100632e-07
7.3560051e-07
7.3967377e-07
7.433606e-07
7.4668833e-07
7.4972379e-07
7.5249344e-07
7.5486434e-07
7.5700692e-07
7.5893736e-07
7.6067344e-07
7.6231918e-07
7.6372619e-07
7.649984e-07
7.6616191e-07
7.6723553e-07
7.6826928e-07
7.6922047e-07
7.7011053e-07
7.7097251e-07
7.7181607e-07
7.7266876e-07
7.7352973e-07
7.7437006e-07
7.7523279e-07
7.7612079e-07
7.7704617e-07
7.780436e-07
7.7902272e-07
7.8002868e-07
7.8107002e-07
7.8214181e-07
7.8329165e-07
7.8440057e-07
7.855203e-07
7.8663819e-07
7.8775002e-07
7.8890047e-07
7.8995548e-07
7.9094412e-07
7.9185604e-07
7.92668e-07
7.9337619e-07
7.9388143e-07
7.9418017e-07
7.9424153e-07
7.9402112e-07
7.9341963e-07
7.9241455e-07
7.9095524e-07
7.8896331e-07
7.8635955e-07
7.8281997e-07
7.7855724e-07
7.7338769e-07
7.6717983e-07
7.6409004e-07
9.9090239e-09
1.9783932e-08
3.8269525e-08
6.4274717e-08
9.8098273e-08
1.3864062e-07
1.8435178e-07
2.3450765e-07
2.8480608e-07
3.3353006e-07
3.7991803e-07
4.2286717e-07
4.6172385e-07
4.9618974e-07
5.2703081e-07
5.5210295e-07
5.7271149e-07
5.8930877e-07
6.0226514e-07
6.1189476e-07
6.1869866e-07
6.2261235e-07
6.2414786e-07
6.237285e-07
6.2165269e-07
6.1822918e-07
5.9714387e-07
6.0467313e-07
6.1234302e-07
6.1951306e-07
6.2621964e-07
6.3274901e-07
6.3876341e-07
6.4427665e-07
6.4945056e-07
6.5430965e-07
6.589406e-07
6.6338262e-07
6.673881e-07
6.7119348e-07
6.7480704e-07
6.7824928e-07
6.8171109e-07
6.8484934e-07
6.8785656e-07
6.9076411e-07
6.9358757e-07
6.9644015e-07
6.9918473e-07
7.0183647e-07
7.0446007e-07
7.0706212e-07
7.0971028e-07
7.123785e-07
7.1495624e-07
7.1755299e-07
7.2016773e-07
7.2283311e-07
7.2562954e-07
7.2831902e-07
7.3103208e-07
7.3377361e-07
7.3654179e-07
7.3948877e-07
7.4227903e-07
7.4507309e-07
7.4785935e-07
7.5062674e-07
7.5350486e-07
7.5619659e-07
7.5879551e-07
7.6129925e-07
7.6368322e-07
7.6601952e-07
7.680658e-07
7.6986085e-07
7.7138954e-07
7.7260573e-07
7.7347546e-07
7.7384584e-07
7.7370623e-07
7.7299441e-07
7.7163072e-07
7.6935621e-07
7.6626593e-07
7.6223692e-07