/*--------------------------------*- C++ -*----------------------------------*\
| =========                 |                                                 |
| \\      /  F ield         | OpenFOAM: The Open Source CFD Toolbox           |
|  \\    /   O peration     | Version:  2406                                  |
|   \\  /    A nd           | Website:  www.openfoam.com                      |
|    \\/     M anipulation  |                                                 |
\*---------------------------------------------------------------------------*/
FoamFile
{
    version     2.0;
    format      ascii;
    arch        "LSB;label=32;scalar=64";
    class       volScalarField;
    location    "0";
    object      initialResidual:nuTilda;
}
// * * * * * * * * * * * * * * * * * * * * * * * * * * * * * * * * * * * * * //

dimensions      [0 0 0 0 0 0 0];

internalField   nonuniform List<scalar> 
18060
(
-1.2192757e-18
-3.0129271e-18
3.9973011e-17
9.3052006e-17
9.7745217e-17
5.8326147e-16
1.4068236e-15
2.3841322e-15
7.8848492e-15
2.0096105e-14
2.1923406e-14
1.1194553e-13
2.9937313e-17
4.015729e-17
-1.3313826e-16
1.4846675e-17
2.2762254e-16
-4.1848474e-16
-4.8841011e-15
-1.1633305e-14
-1.5575833e-14
-1.2632053e-13
-5.6354816e-13
-1.5052638e-12
3.2676723e-17
8.238276e-17
-3.5167475e-16
-2.6820984e-16
3.2757085e-16
-3.3855484e-15
-1.8192492e-14
-3.9016887e-14
-7.1577451e-14
-4.3010157e-13
-1.5611947e-12
-4.4352239e-12
1.948751e-17
7.869851e-17
-4.3700825e-16
-6.1563074e-16
2.3717876e-17
-6.6812468e-15
-3.0333555e-14
-6.4588556e-14
-1.3405205e-13
-7.6111577e-13
-2.5020523e-12
-7.4294259e-12
7.4867345e-18
4.5026958e-17
-4.257513e-16
-9.7028784e-16
-6.0892944e-16
-9.7333948e-15
-3.8442041e-14
-8.2137322e-14
-1.8897263e-13
-1.0296047e-12
-3.1469765e-12
-9.8230552e-12
2.0547833e-19
2.348108e-18
-3.8354491e-16
-1.2780979e-15
-1.3825643e-15
-1.2172351e-14
-4.3544147e-14
-9.3125907e-14
-2.3344259e-13
-1.196245e-12
-3.4339259e-12
-1.1330512e-11
-3.0311951e-19
-1.7739399e-17
-3.3551309e-16
-1.438815e-15
-2.3360863e-15
-1.394573e-14
-4.6886851e-14
-1.011376e-13
-2.7217748e-13
-1.2727638e-12
-3.4196916e-12
-1.1990247e-11
-1.6240005e-19
-7.9835717e-18
-2.6360088e-16
-1.4308047e-15
-3.2319506e-15
-1.476284e-14
-4.8557385e-14
-1.0683771e-13
-3.0149395e-13
-1.2778252e-12
-3.224297e-12
-1.1928232e-11
-2.7183797e-19
-1.96625e-18
-7.6405754e-17
-1.2912107e-15
-3.725448e-15
-1.4989003e-14
-4.8759831e-14
-1.1105877e-13
-3.230837e-13
-1.2387889e-12
-2.9509704e-12
-1.1453927e-11
-1.7587356e-19
-1.6384041e-18
-1.0595582e-17
-6.6776596e-16
-3.7720267e-15
-1.4335122e-14
-4.7221216e-14
-1.1329228e-13
-3.3507684e-13
-1.1692034e-12
-2.6689238e-12
-1.0807207e-11
-1.4812357e-19
-1.2917276e-18
-8.2291724e-18
-7.2535892e-17
-2.3858632e-15
-1.3236656e-14
-4.3613532e-14
-1.1203527e-13
-3.3559125e-13
-1.0804387e-12
-2.4234105e-12
-1.0144082e-11
-1.1797736e-19
-1.0816083e-18
-4.8370606e-18
-2.3110334e-17
-4.2585554e-16
-9.1107438e-15
-3.8763737e-14
-1.0476282e-13
-3.2019468e-13
-9.8332269e-13
-2.2448347e-12
-9.3046156e-12
-9.1166794e-20
-9.5817614e-19
-3.9781147e-18
-1.6369105e-17
-4.2742272e-17
-1.5112681e-15
-3.252373e-14
-9.4337492e-14
-2.8860493e-13
-8.8108065e-13
-2.0946249e-12
-8.3581379e-12
-1.1042459e-19
-8.6065865e-19
-3.829433e-18
-1.355052e-17
-3.4103049e-17
-8.0152891e-17
-9.7525991e-15
-7.8809889e-14
-2.4073703e-13
-7.5719739e-13
-1.9218074e-12
-7.2642983e-12
4.0073754e-20
-5.4269383e-19
-2.2370459e-18
-6.0085722e-18
-1.2853587e-17
-2.8273277e-17
-3.2945115e-16
-2.7810606e-14
-1.9610134e-13
-6.2176899e-13
-1.7357466e-12
-6.2546932e-12
1.3448958e-19
2.541443e-19
-2.9906574e-20
-2.3824988e-19
-7.6291788e-19
-1.364817e-18
-5.0689884e-18
-2.0783129e-15
-8.6339151e-14
-5.0723968e-13
-1.5026687e-12
-5.312158e-12
7.8141588e-20
1.2562008e-19
2.5014201e-19
3.1526386e-19
4.9192784e-19
6.9041993e-19
9.2927461e-19
6.891687e-19
-1.2510878e-15
-2.9180128e-13
-1.2186612e-12
-4.2169026e-12
6.8653421e-20
1.6697772e-19
3.1720766e-19
4.8649259e-19
5.9359578e-19
7.167674e-19
8.5568004e-19
1.1947643e-18
4.0708515e-18
-4.0135084e-14
-8.6644708e-13
-3.3226121e-12
7.6830617e-20
1.7831322e-19
2.8869402e-19
3.9191536e-19
5.4445144e-19
6.9399711e-19
8.0308202e-19
1.1030019e-18
1.1841387e-18
1.603624e-16
-1.8752087e-13
-2.3663879e-12
9.7820566e-20
1.7075751e-19
2.9161776e-19
4.0747231e-19
5.9745579e-19
7.3467055e-19
8.633792e-19
1.1757035e-18
-3.1478956e-19
1.3656042e-18
-1.7198817e-15
-2.8240031e-13
9.1563138e-20
2.0859123e-19
3.3508736e-19
4.1933445e-19
5.6695106e-19
7.7494449e-19
1.0464501e-18
1.2614827e-18
-2.7808451e-18
-5.2643895e-18
4.1439977e-17
5.0521005e-15
1.1842552e-19
2.1053198e-19
3.2584828e-19
5.0791622e-19
7.4833753e-19
9.0198487e-19
9.7545436e-19
1.4073121e-18
2.2908932e-18
5.1708644e-18
-7.0442241e-18
4.6331345e-18
1.2206783e-19
2.5486819e-19
3.9349039e-19
5.4097019e-19
7.2991789e-19
9.5047655e-19
1.235693e-18
1.6158822e-18
7.5196294e-19
5.7391924e-18
-4.2797788e-18
-9.8153938e-18
1.4413467e-19
2.8374186e-19
4.2687141e-19
6.3158969e-19
8.8857364e-19
1.1244823e-18
1.3281598e-18
1.7648303e-18
2.1424073e-18
5.6832229e-18
-4.3893133e-18
-1.6208077e-17
1.5994318e-19
3.3679087e-19
5.098916e-19
7.1446776e-19
9.6983477e-19
1.2619655e-18
1.6145171e-18
2.0841242e-18
1.3876469e-18
5.1334261e-18
-9.403834e-20
6.0931205e-19
1.9335555e-19
3.9764795e-19
5.9828209e-19
8.5662096e-19
1.177612e-18
1.52698e-18
1.89698e-18
2.4280218e-18
2.4887621e-18
5.5092708e-18
3.9396462e-19
2.8183928e-18
2.2546936e-19
4.719663e-19
7.1965928e-19
1.0050483e-18
1.3461666e-18
1.7850945e-18
2.3059924e-18
2.9132036e-18
2.5549365e-18
6.1154435e-18
2.6316097e-18
6.8733041e-18
2.7265824e-19
5.8513832e-19
8.843117e-19
1.2388504e-18
1.6672287e-18
2.2323537e-18
2.859284e-18
3.554626e-18
3.8957737e-18
6.6525739e-18
4.3935188e-18
1.602257e-17
3.2401512e-19
7.049608e-19
1.072793e-18
1.4818092e-18
1.9453986e-18
2.65738e-18
3.5184913e-18
4.3250155e-18
3.8047729e-18
5.8375126e-18
1.1362483e-17
3.6865796e-17
4.1274079e-19
8.6902102e-19
1.3291904e-18
1.8800207e-18
2.4973788e-18
3.3820755e-18
4.4091904e-18
5.4189406e-18
6.3984501e-18
1.000406e-17
7.927091e-18
1.2325807e-17
4.965035e-19
1.0606262e-18
1.6210324e-18
2.2791531e-18
3.0065054e-18
4.0989486e-18
5.4443607e-18
6.6650826e-18
7.6234709e-18
1.1894426e-17
1.1374403e-17
1.002203e-17
6.2315881e-19
1.3166024e-18
2.0135947e-18
2.8633011e-18
3.8003903e-18
5.1505509e-18
6.8339956e-18
8.3892646e-18
1.0369299e-17
1.4839525e-17
1.3519511e-17
1.0824833e-17
7.57726e-19
1.6016733e-18
2.4481248e-18
3.4981644e-18
4.681705e-18
6.315895e-18
8.3676193e-18
1.0314824e-17
1.258484e-17
1.6738938e-17
1.9742281e-17
2.6188543e-17
9.3054027e-19
1.9599332e-18
2.9979426e-18
4.3010075e-18
5.7832142e-18
7.792592e-18
1.0295712e-17
1.2795079e-17
1.5933874e-17
2.0624198e-17
2.4100583e-17
2.907093e-17
1.1219632e-18
2.3531688e-18
3.5984138e-18
5.1922313e-18
7.0367795e-18
9.4563983e-18
1.239641e-17
1.5490349e-17
1.9493438e-17
2.4705452e-17
2.972421e-17
3.8946365e-17
1.3211501e-18
2.7969492e-18
4.2779532e-18
6.1578963e-18
8.3252142e-18
1.1226546e-17
1.4778573e-17
1.8619208e-17
2.3206085e-17
2.8665161e-17
3.7442209e-17
4.0258873e-17
1.5217927e-18
3.2317286e-18
4.9457333e-18
7.1447037e-18
9.7089922e-18
1.3075821e-17
1.7119502e-17
2.1641122e-17
2.7243892e-17
3.3552026e-17
4.2377382e-17
4.6195513e-17
1.6733539e-18
3.5894472e-18
5.4968004e-18
7.9353459e-18
1.0777925e-17
1.45312e-17
1.9098583e-17
2.4247734e-17
3.025718e-17
3.8146064e-17
4.9574526e-17
6.2149898e-17
1.7987582e-18
3.7606865e-18
5.7616508e-18
8.3325897e-18
1.1329449e-17
1.5335038e-17
2.0059153e-17
2.5440073e-17
3.1895917e-17
4.0548916e-17
5.4861591e-17
6.7717512e-17
1.7135004e-18
3.5962319e-18
5.5118128e-18
7.9361067e-18
1.0736551e-17
1.4562005e-17
1.9033541e-17
2.4362604e-17
3.0237915e-17
4.0030798e-17
5.1719531e-17
6.4361058e-17
1.3053658e-18
2.740899e-18
4.2016675e-18
6.0527664e-18
8.1753191e-18
1.0925487e-17
1.48798e-17
1.9250188e-17
2.3757425e-17
3.1307054e-17
3.9607358e-17
4.9394083e-17
5.9987514e-19
1.2726446e-18
1.9901419e-18
2.8655946e-18
3.8597054e-18
5.1178485e-18
6.8194018e-18
8.7115969e-18
2.3933626e-17
2.6250704e-17
2.7825112e-17
3.2287827e-17
3.2011265e-13
1.0238476e-12
1.8679667e-12
2.8877081e-12
3.9954104e-12
5.1010929e-12
6.1345354e-12
7.0780111e-12
7.8489603e-12
8.4583836e-12
8.9272503e-12
9.267376e-12
9.4939116e-12
9.6218069e-12
9.6625964e-12
9.6278024e-12
9.5346222e-12
9.3935857e-12
9.2135452e-12
9.0022819e-12
8.7588817e-12
8.4990733e-12
8.2311466e-12
7.9542307e-12
7.6718981e-12
7.3870191e-12
6.8067194e-12
6.7661847e-12
6.7216746e-12
6.6735482e-12
6.62218e-12
6.5658471e-12
6.5075702e-12
6.448122e-12
6.3866695e-12
6.3235192e-12
6.257837e-12
6.1890377e-12
6.1219135e-12
6.0540425e-12
5.9855544e-12
5.9165839e-12
5.843535e-12
5.7739467e-12
5.7045457e-12
5.6352472e-12
5.5661571e-12
5.4947855e-12
5.4251307e-12
5.3573505e-12
5.2901118e-12
5.2234524e-12
5.1559526e-12
5.0884333e-12
5.0240286e-12
4.9604017e-12
4.8975926e-12
4.8349751e-12
4.7709937e-12
4.710932e-12
4.651689e-12
4.5933491e-12
4.535796e-12
4.4758127e-12
4.4200905e-12
4.3651192e-12
4.3109471e-12
4.257381e-12
4.2016891e-12
4.1491729e-12
4.0975444e-12
4.0463681e-12
3.9955759e-12
3.9425633e-12
3.8916954e-12
3.8416305e-12
3.7914935e-12
3.7411463e-12
3.6878611e-12
3.6360108e-12
3.5839907e-12
3.5313019e-12
3.4769726e-12
3.4178869e-12
3.3592165e-12
3.2983218e-12
3.2339847e-12
3.1656251e-12
-6.8959076e-12
-1.0276996e-11
-1.3741297e-11
-1.6868142e-11
-1.897761e-11
-2.0074864e-11
-2.0295991e-11
-1.9793111e-11
-1.883904e-11
-1.7651835e-11
-1.6343384e-11
-1.4997425e-11
-1.3661369e-11
-1.2375079e-11
-1.1118998e-11
-9.9911179e-12
-8.9551191e-12
-8.0064321e-12
-7.142716e-12
-6.3605062e-12
-5.6348221e-12
-4.9930532e-12
-4.4285828e-12
-3.921987e-12
-3.4677377e-12
-3.0614607e-12
-2.5777745e-12
-2.3544931e-12
-2.1418023e-12
-1.9386498e-12
-1.7443722e-12
-1.5526411e-12
-1.3725285e-12
-1.2046314e-12
-1.0442231e-12
-8.9060785e-13
-7.4129945e-13
-5.953005e-13
-4.6179335e-13
-3.3370689e-13
-2.1068101e-13
-9.2609945e-14
2.6800224e-14
1.35689e-13
2.4028099e-13
3.412164e-13
4.3882621e-13
5.3674519e-13
6.297935e-13
7.1831517e-13
8.0451903e-13
8.8863222e-13
9.7279298e-13
1.0560829e-12
1.1349539e-12
1.2125874e-12
1.2891937e-12
1.3657823e-12
1.4445182e-12
1.5191238e-12
1.5934097e-12
1.6678128e-12
1.7423282e-12
1.8215308e-12
1.8966616e-12
1.9723672e-12
2.0490209e-12
2.1265683e-12
2.2092178e-12
2.2896042e-12
2.3707837e-12
2.4534672e-12
2.5378053e-12
2.628281e-12
2.7172622e-12
2.8073638e-12
2.8998409e-12
2.9944626e-12
3.0964464e-12
3.1972881e-12
3.2994882e-12
3.4052603e-12
3.5135382e-12
3.6311018e-12
3.7473275e-12
3.8665883e-12
3.9902083e-12
4.118954e-12
-1.9909099e-11
-3.3098499e-11
-4.695243e-11
-6.097859e-11
-7.264334e-11
-8.1454276e-11
-8.7389673e-11
-9.0805766e-11
-9.2017076e-11
-9.1708227e-11
-9.0318981e-11
-8.8158294e-11
-8.5445295e-11
-8.2374038e-11
-7.8950886e-11
-7.5519621e-11
-7.2064281e-11
-6.8624543e-11
-6.5238426e-11
-6.1935617e-11
-5.8640462e-11
-5.5509729e-11
-5.2565048e-11
-4.9746216e-11
-4.7054341e-11
-4.4490602e-11
-4.0285865e-11
-3.942977e-11
-3.858541e-11
-3.7751726e-11
-3.6928436e-11
-3.6088354e-11
-3.5273358e-11
-3.4488906e-11
-3.3716938e-11
-3.2956845e-11
-3.2197222e-11
-3.1432289e-11
-3.0712403e-11
-3.0005088e-11
-2.9309854e-11
-2.8627056e-11
-2.7920817e-11
-2.7262574e-11
-2.6618166e-11
-2.5985291e-11
-2.5363576e-11
-2.4730293e-11
-2.4120115e-11
-2.3532815e-11
-2.2955505e-11
-2.2387761e-11
-2.1816494e-11
-2.1248429e-11
-2.0708885e-11
-2.0177367e-11
-1.9653522e-11
-1.9131529e-11
-1.8597816e-11
-1.8095876e-11
-1.7599815e-11
-1.7108931e-11
-1.6622682e-11
-1.6112943e-11
-1.5636499e-11
-1.5163436e-11
-1.4693047e-11
-1.4224755e-11
-1.3733904e-11
-1.3266337e-11
-1.2802646e-11
-1.233894e-11
-1.187461e-11
-1.138581e-11
-1.0913531e-11
-1.0444191e-11
-9.9710965e-12
-9.4939975e-12
-8.9875184e-12
-8.4939086e-12
-7.9994558e-12
-7.4965037e-12
-6.9841717e-12
-6.4324666e-12
-5.891801e-12
-5.3404011e-12
-4.7713138e-12
-4.1830452e-12
-3.3200774e-11
-5.9180592e-11
-8.655336e-11
-1.1549194e-10
-1.4103597e-10
-1.617726e-10
-1.7721595e-10
-1.8790584e-10
-1.9388189e-10
-1.9637858e-10
-1.9627761e-10
-1.9418701e-10
-1.9057042e-10
-1.8584404e-10
-1.8008585e-10
-1.7395287e-10
-1.6750592e-10
-1.6086336e-10
-1.541363e-10
-1.474143e-10
-1.405633e-10
-1.3392912e-10
-1.2758721e-10
-1.2142942e-10
-1.1547292e-10
-1.0973225e-10
-9.9864542e-11
-9.8162007e-11
-9.6462791e-11
-9.4767192e-11
-9.3076117e-11
-9.1333537e-11
-8.9627756e-11
-8.7972018e-11
-8.633013e-11
-8.4702155e-11
-8.3064255e-11
-8.1403563e-11
-7.983055e-11
-7.8276996e-11
-7.674253e-11
-7.522825e-11
-7.3654966e-11
-7.2182323e-11
-7.07354e-11
-6.9309703e-11
-6.7905164e-11
-6.6470632e-11
-6.5085161e-11
-6.3749082e-11
-6.2433784e-11
-6.1138796e-11
-5.9834712e-11
-5.8537223e-11
-5.7304397e-11
-5.6089885e-11
-5.4893296e-11
-5.370182e-11
-5.2485016e-11
-5.1342468e-11
-5.0215187e-11
-4.9102325e-11
-4.8002664e-11
-4.6853289e-11
-4.5782566e-11
-4.4723035e-11
-4.3673705e-11
-4.2633361e-11
-4.1547365e-11
-4.0518312e-11
-3.9502813e-11
-3.8492456e-11
-3.7486154e-11
-3.6432989e-11
-3.542152e-11
-3.442219e-11
-3.342146e-11
-3.2418168e-11
-3.1359938e-11
-3.0335559e-11
-2.9315905e-11
-2.8286364e-11
-2.7244399e-11
-2.6130095e-11
-2.5047271e-11
-2.3952455e-11
-2.2833262e-11
-2.1691584e-11
-4.3534355e-11
-8.3127914e-11
-1.2494819e-10
-1.7059597e-10
-2.1263079e-10
-2.4832675e-10
-2.7641436e-10
-2.9751204e-10
-3.1097809e-10
-3.1854807e-10
-3.2158056e-10
-3.2100339e-10
-3.1756199e-10
-3.1193307e-10
-3.0431786e-10
-2.9569576e-10
-2.8627274e-10
-2.7627717e-10
-2.6592515e-10
-2.5539065e-10
-2.44487e-10
-2.3378783e-10
-2.234478e-10
-2.1331458e-10
-2.0343204e-10
-1.9383702e-10
-1.7689052e-10
-1.7425705e-10
-1.7160485e-10
-1.6893711e-10
-1.66257e-10
-1.6347575e-10
-1.6073593e-10
-1.5806108e-10
-1.5539451e-10
-1.5273763e-10
-1.5005231e-10
-1.4731714e-10
-1.447152e-10
-1.4213643e-10
-1.3958119e-10
-1.3705144e-10
-1.3441515e-10
-1.3194046e-10
-1.2950301e-10
-1.2709592e-10
-1.2471988e-10
-1.2228856e-10
-1.1993645e-10
-1.1766503e-10
-1.1542638e-10
-1.1322025e-10
-1.1099688e-10
-1.0878342e-10
-1.0667912e-10
-1.0460533e-10
-1.0256175e-10
-1.0052696e-10
-9.8449468e-11
-9.6499738e-11
-9.4577257e-11
-9.2681132e-11
-9.0809501e-11
-8.8855829e-11
-8.7038682e-11
-8.5243465e-11
-8.3468952e-11
-8.1713431e-11
-7.9884794e-11
-7.81568e-11
-7.6456231e-11
-7.4769111e-11
-7.3093941e-11
-7.1346837e-11
-6.9675089e-11
-6.8029252e-11
-6.638793e-11
-6.4748915e-11
-6.3027689e-11
-6.1369491e-11
-5.972654e-11
-5.8076066e-11
-5.6414797e-11
-5.46481e-11
-5.2942853e-11
-5.1231414e-11
-4.9496245e-11
-4.7748506e-11
-4.9312425e-11
-1.0157952e-10
-1.5679221e-10
-2.1881454e-10
-2.7806674e-10
-3.3024467e-10
-3.730525e-10
-4.0700951e-10
-4.304016e-10
-4.4530169e-10
-4.5349633e-10
-4.5619762e-10
-4.5442772e-10
-4.4912741e-10
-4.4066833e-10
-4.3030476e-10
-4.1845626e-10
-4.0548751e-10
-3.9174392e-10
-3.775047e-10
-3.625471e-10
-3.476882e-10
-3.3318456e-10
-3.1885297e-10
-3.0477504e-10
-2.9101912e-10
-2.6616789e-10
-2.6265123e-10
-2.5907744e-10
-2.5545377e-10
-2.5178682e-10
-2.4795557e-10
-2.441584e-10
-2.4043109e-10
-2.3669652e-10
-2.3295818e-10
-2.2916355e-10
-2.252821e-10
-2.2157504e-10
-2.1788874e-10
-2.142252e-10
-2.1058739e-10
-2.0678536e-10
-2.0320672e-10
-1.9967353e-10
-1.9617674e-10
-1.9271821e-10
-1.8917257e-10
-1.8573642e-10
-1.8241314e-10
-1.7913351e-10
-1.7589776e-10
-1.7263327e-10
-1.6938022e-10
-1.6628485e-10
-1.6323199e-10
-1.6022158e-10
-1.5722251e-10
-1.5415921e-10
-1.5128359e-10
-1.4844783e-10
-1.4565107e-10
-1.4289092e-10
-1.4001061e-10
-1.3733277e-10
-1.3468864e-10
-1.3207681e-10
-1.2949518e-10
-1.2680832e-10
-1.2427234e-10
-1.2177975e-10
-1.1931015e-10
-1.1686172e-10
-1.1431256e-10
-1.1187784e-10
-1.0948516e-10
-1.0710416e-10
-1.0473145e-10
-1.0224543e-10
-9.9856568e-11
-9.7495226e-11
-9.512906e-11
-9.2754534e-11
-9.0236164e-11
-8.7813024e-11
-8.5389863e-11
-8.2942176e-11
-8.0497326e-11
-5.0288897e-11
-1.1383522e-10
-1.8065494e-10
-2.5807796e-10
-3.3481157e-10
-4.0477533e-10
-4.6445057e-10
-5.1398325e-10
-5.5018414e-10
-5.7521284e-10
-5.9118131e-10
-5.9951189e-10
-6.0147273e-10
-5.98255e-10
-5.9045369e-10
-5.7951134e-10
-5.6614483e-10
-5.5088755e-10
-5.3423946e-10
-5.1661077e-10
-4.9776675e-10
-4.7877993e-10
-4.6003774e-10
-4.4134677e-10
-4.2284123e-10
-4.0463372e-10
-3.7093797e-10
-3.6665863e-10
-3.6226063e-10
-3.57756e-10
-3.5315628e-10
-3.483109e-10
-3.434736e-10
-3.3869448e-10
-3.3387712e-10
-3.2902812e-10
-3.2408098e-10
-3.1899585e-10
-3.1411696e-10
-3.0924614e-10
-3.0438846e-10
-2.9954837e-10
-2.944723e-10
-2.8967913e-10
-2.8493335e-10
-2.8022407e-10
-2.7555506e-10
-2.7075725e-10
-2.6609727e-10
-2.6158152e-10
-2.5711717e-10
-2.5270531e-10
-2.4824726e-10
-2.4379813e-10
-2.3955868e-10
-2.3537196e-10
-2.3123831e-10
-2.2711545e-10
-2.2289959e-10
-2.1893817e-10
-2.150284e-10
-2.1116957e-10
-2.0735882e-10
-2.0337977e-10
-1.9967857e-10
-1.9602247e-10
-1.9240987e-10
-1.8883833e-10
-1.8512034e-10
-1.8161087e-10
-1.7816156e-10
-1.7474428e-10
-1.7135692e-10
-1.678311e-10
-1.6446446e-10
-1.6115701e-10
-1.5786723e-10
-1.5459006e-10
-1.5115807e-10
-1.4786196e-10
-1.446046e-10
-1.413417e-10
-1.3806937e-10
-1.345987e-10
-1.3125937e-10
-1.2792105e-10
-1.2454791e-10
-1.2119897e-10
-4.781811e-11
-1.1792635e-10
-1.9299827e-10
-2.8192629e-10
-3.7300542e-10
-4.5862618e-10
-5.3417323e-10
-5.991222e-10
-6.4877297e-10
-6.850613e-10
-7.102322e-10
-7.2578149e-10
-7.3312774e-10
-7.3363941e-10
-7.2814493e-10
-7.1812821e-10
-7.0463639e-10
-6.8837501e-10
-6.6999393e-10
-6.5003728e-10
-6.2828833e-10
-6.0603697e-10
-5.8381003e-10
-5.6143053e-10
-5.3909283e-10
-5.169607e-10
-4.749925e-10
-4.7026873e-10
-4.6534854e-10
-4.6024779e-10
-4.5498364e-10
-4.4938604e-10
-4.4375166e-10
-4.3814418e-10
-4.324534e-10
-4.2668962e-10
-4.2077603e-10
-4.1466502e-10
-4.08773e-10
-4.0286512e-10
-3.969504e-10
-3.9103548e-10
-3.8480892e-10
-3.7890873e-10
-3.7304866e-10
-3.6721691e-10
-3.6141962e-10
-3.5544695e-10
-3.4963136e-10
-3.4398317e-10
-3.3838773e-10
-3.3284727e-10
-3.2723809e-10
-3.2162961e-10
-3.1627599e-10
-3.1098017e-10
-3.0574302e-10
-3.0051133e-10
-2.9515314e-10
-2.9011084e-10
-2.8512766e-10
-2.8020309e-10
-2.7533393e-10
-2.7024344e-10
-2.6550272e-10
-2.6081467e-10
-2.5617752e-10
-2.5158854e-10
-2.4680641e-10
-2.4228818e-10
-2.3784343e-10
-2.3343615e-10
-2.2906423e-10
-2.2450982e-10
-2.2015722e-10
-2.1587826e-10
-2.1161908e-10
-2.0737269e-10
-2.029228e-10
-1.9864584e-10
-1.944147e-10
-1.9017306e-10
-1.8591638e-10
-1.8139522e-10
-1.7704016e-10
-1.7268226e-10
-1.6827094e-10
-1.6392173e-10
-4.3352675e-11
-1.1550008e-10
-1.9599736e-10
-2.9289575e-10
-3.9527073e-10
-4.9437183e-10
-5.8463473e-10
-6.6461195e-10
-7.2814787e-10
-7.7666551e-10
-8.1235157e-10
-8.3663502e-10
-8.5098139e-10
-8.568576e-10
-8.5532859e-10
-8.4776513e-10
-8.3557073e-10
-8.1962425e-10
-8.0071693e-10
-7.7952736e-10
-7.5588627e-10
-7.3126001e-10
-7.0632305e-10
-6.809417e-10
-6.5537813e-10
-6.2985472e-10
-5.8014088e-10
-5.7532663e-10
-5.7022127e-10
-5.6484234e-10
-5.5921327e-10
-5.5315626e-10
-5.4699673e-10
-5.4081043e-10
-5.3447951e-10
-5.2801881e-10
-5.2134528e-10
-5.1440534e-10
-5.0767576e-10
-5.0089347e-10
-4.9407211e-10
-4.8722146e-10
-4.799787e-10
-4.7308749e-10
-4.6621839e-10
-4.5935973e-10
-4.5252075e-10
-4.454538e-10
-4.3855271e-10
-4.3183263e-10
-4.2515905e-10
-4.1853556e-10
-4.1181445e-10
-4.0507873e-10
-3.9863525e-10
-3.9224845e-10
-3.8591991e-10
-3.7958564e-10
-3.7308524e-10
-3.6695641e-10
-3.6088889e-10
-3.5488248e-10
-3.4893377e-10
-3.4270402e-10
-3.3689249e-10
-3.3113652e-10
-3.254343e-10
-3.1978274e-10
-3.1388418e-10
-3.0830293e-10
-3.0280443e-10
-2.9734476e-10
-2.9192222e-10
-2.862651e-10
-2.808509e-10
-2.7552244e-10
-2.7021163e-10
-2.6490957e-10
-2.593481e-10
-2.5399574e-10
-2.4869295e-10
-2.4337253e-10
-2.3802804e-10
-2.3234167e-10
-2.2685996e-10
-2.2137018e-10
-2.1580316e-10
-2.1037604e-10
-3.775912e-11
-1.0799871e-10
-1.9067172e-10
-2.9163831e-10
-4.0144687e-10
-5.1085399e-10
-6.1339232e-10
-7.0676618e-10
-7.8346548e-10
-8.4419401e-10
-8.9089283e-10
-9.2478313e-10
-9.472619e-10
-9.5980187e-10
-9.6368555e-10
-9.6001131e-10
-9.5053458e-10
-9.3629314e-10
-9.1819782e-10
-8.9704918e-10
-8.7275257e-10
-8.468917e-10
-8.2028571e-10
-7.9286923e-10
-7.6497512e-10
-7.3688818e-10
-6.8052999e-10
-6.7604387e-10
-6.7116131e-10
-6.6589751e-10
-6.602826e-10
-6.5414634e-10
-6.4782308e-10
-6.413969e-10
-6.3475026e-10
-6.279036e-10
-6.2077295e-10
-6.133013e-10
-6.0600708e-10
-5.9861137e-10
-5.9113226e-10
-5.8358345e-10
-5.7556274e-10
-5.6789528e-10
-5.6022061e-10
-5.5252852e-10
-5.4483209e-10
-5.368524e-10
-5.290344e-10
-5.2139868e-10
-5.1379451e-10
-5.0622707e-10
-4.9852763e-10
-4.9079095e-10
-4.8337159e-10
-4.7600049e-10
-4.6868014e-10
-4.6133686e-10
-4.5378364e-10
-4.4664651e-10
-4.3956652e-10
-4.3254377e-10
-4.2557489e-10
-4.1826216e-10
-4.1142654e-10
-4.0464371e-10
-3.9791189e-10
-3.9122761e-10
-3.8423869e-10
-3.7761417e-10
-3.7107618e-10
-3.6457401e-10
-3.5810685e-10
-3.5134757e-10
-3.4486819e-10
-3.3848398e-10
-3.3211027e-10
-3.2573782e-10
-3.190484e-10
-3.1259967e-10
-3.0620183e-10
-2.9978053e-10
-2.933226e-10
-2.8644088e-10
-2.798086e-10
-2.7316218e-10
-2.6641235e-10
-2.5994667e-10
-3.1870313e-11
-9.7094612e-11
-1.7876291e-10
-2.8002775e-10
-3.9318103e-10
-5.0918849e-10
-6.2071347e-10
-7.2490606e-10
-8.1306151e-10
-8.8505477e-10
-9.4242704e-10
-9.8607117e-10
-1.017206e-09
-1.0372177e-09
-1.0475701e-09
-1.0489475e-09
-1.0434249e-09
-1.0321697e-09
-1.0161846e-09
-9.9636547e-10
-9.7271555e-10
-9.4686599e-10
-9.1976686e-10
-8.9144132e-10
-8.6229043e-10
-8.3266108e-10
-7.712016e-10
-7.6747752e-10
-7.6324944e-10
-7.5852413e-10
-7.5333945e-10
-7.4755032e-10
-7.4147541e-10
-7.3520127e-10
-7.2862006e-10
-7.2175935e-10
-7.1454037e-10
-7.0690551e-10
-6.9939096e-10
-6.9171707e-10
-6.8390555e-10
-6.7597423e-10
-6.6749801e-10
-6.5935074e-10
-6.5115689e-10
-6.4290919e-10
-6.3462513e-10
-6.2600442e-10
-6.1752774e-10
-6.0922101e-10
-6.0092251e-10
-5.9263893e-10
-5.8418557e-10
-5.75666e-10
-5.6747336e-10
-5.5931324e-10
-5.5118928e-10
-5.4302007e-10
-5.3459617e-10
-5.266173e-10
-5.1868487e-10
-5.107992e-10
-5.0295738e-10
-4.9471065e-10
-4.869846e-10
-4.7930279e-10
-4.7166329e-10
-4.6406232e-10
-4.5610027e-10
-4.4853878e-10
-4.4106102e-10
-4.3361258e-10
-4.2619282e-10
-4.1842119e-10
-4.1096066e-10
-4.0360113e-10
-3.9623826e-10
-3.8886809e-10
-3.8112789e-10
-3.7364805e-10
-3.6622108e-10
-3.5876917e-10
-3.5125905e-10
-3.4324886e-10
-3.3554032e-10
-3.2780349e-10
-3.1993911e-10
-3.1259754e-10
-2.6508019e-11
-8.4416596e-11
-1.6225853e-10
-2.6049075e-10
-3.7320797e-10
-4.9189407e-10
-6.0877471e-10
-7.2065322e-10
-8.1787926e-10
-8.9947979e-10
-9.6648988e-10
-1.019385e-09
-1.0591138e-09
-1.0868935e-09
-1.1043228e-09
-1.1115596e-09
-1.1109461e-09
-1.1037398e-09
-1.0910042e-09
-1.0736962e-09
-1.0519329e-09
-1.0273208e-09
-1.0009186e-09
-9.7285208e-10
-9.4358336e-10
-9.1351731e-10
-8.4876554e-10
-8.4621344e-10
-8.4305617e-10
-8.3928345e-10
-8.3494452e-10
-8.2993752e-10
-8.2453612e-10
-8.1882221e-10
-8.1270881e-10
-8.0623264e-10
-7.9932634e-10
-7.9193454e-10
-7.8458416e-10
-7.7701114e-10
-7.6923979e-10
-7.6129164e-10
-7.5273787e-10
-7.4446268e-10
-7.3609415e-10
-7.2762936e-10
-7.1909046e-10
-7.1016811e-10
-7.0135975e-10
-6.9269581e-10
-6.8400952e-10
-6.7530888e-10
-6.6639984e-10
-6.5739117e-10
-6.4870183e-10
-6.400228e-10
-6.3135912e-10
-6.226243e-10
-6.1359272e-10
-6.0501655e-10
-5.9647006e-10
-5.8795361e-10
-5.7946557e-10
-5.7051822e-10
-5.6211499e-10
-5.5374225e-10
-5.4539691e-10
-5.370756e-10
-5.283437e-10
-5.2003227e-10
-5.1179494e-10
-5.035789e-10
-4.95379e-10
-4.8676874e-10
-4.7849562e-10
-4.7032172e-10
-4.6212199e-10
-4.5391099e-10
-4.4528394e-10
-4.3691472e-10
-4.2861008e-10
-4.2028273e-10
-4.1185306e-10
-4.0287439e-10
-3.9425198e-10
-3.8556518e-10
-3.7674756e-10
-3.6880172e-10
-2.1997528e-11
-7.1369244e-11
-1.4307723e-10
-2.3564203e-10
-3.4459493e-10
-4.6222744e-10
-5.8085718e-10
-6.9709099e-10
-8.0064036e-10
-8.8973714e-10
-9.6485533e-10
-1.0259992e-09
-1.073779e-09
-1.1091751e-09
-1.1338703e-09
-1.1474179e-09
-1.1523619e-09
-1.1500067e-09
-1.1414411e-09
-1.1276502e-09
-1.1088706e-09
-1.0866163e-09
-1.0620273e-09
-1.0353395e-09
-1.0070659e-09
-9.7766214e-10
-9.1152284e-10
-9.1050556e-10
-9.087952e-10
-9.0635401e-10
-9.0325114e-10
-8.9944363e-10
-8.9512515e-10
-8.9036702e-10
-8.8511651e-10
-8.7942198e-10
-8.7323301e-10
-8.6649876e-10
-8.5970875e-10
-8.5263077e-10
-8.4529078e-10
-8.3771337e-10
-8.2948591e-10
-8.2146208e-10
-8.1329416e-10
-8.049849e-10
-7.9656049e-10
-7.8771626e-10
-7.7894555e-10
-7.7028172e-10
-7.6155928e-10
-7.5278707e-10
-7.4376946e-10
-7.3461643e-10
-7.2575755e-10
-7.1688156e-10
-7.0799518e-10
-6.990098e-10
-6.8969152e-10
-6.8081907e-10
-6.7195399e-10
-6.6309677e-10
-6.5424852e-10
-6.448966e-10
-6.3608907e-10
-6.2729418e-10
-6.1850477e-10
-6.0972121e-10
-6.004896e-10
-5.9167531e-10
-5.8292116e-10
-5.7418166e-10
-5.654329e-10
-5.5622343e-10
-5.4737507e-10
-5.386055e-10
-5.2978312e-10
-5.2095874e-10
-5.1167137e-10
-5.0261499e-10
-4.9365929e-10
-4.8468011e-10
-4.7554467e-10
-4.6585723e-10
-4.565584e-10
-4.471987e-10
-4.3771009e-10
-4.2952164e-10
-1.8152967e-11
-5.7912774e-11
-1.2095743e-10
-2.0485616e-10
-3.0630401e-10
-4.1883981e-10
-5.3530322e-10
-6.5232201e-10
-7.5931136e-10
-8.5376128e-10
-9.3552392e-10
-1.0040648e-09
-1.0595711e-09
-1.1027013e-09
-1.1351687e-09
-1.1558072e-09
-1.1672947e-09
-1.1709329e-09
-1.16779e-09
-1.1588536e-09
-1.1444781e-09
-1.1260075e-09
-1.104632e-09
-1.0807111e-09
-1.0547981e-09
-1.0273936e-09
-9.6203541e-10
-9.630862e-10
-9.6336829e-10
-9.6280117e-10
-9.6149953e-10
-9.5949098e-10
-9.5682852e-10
-9.5357361e-10
-9.4973161e-10
-9.4536615e-10
-9.4044988e-10
-9.34939e-10
-9.2924714e-10
-9.2319643e-10
-9.1681356e-10
-9.1012605e-10
-9.0276295e-10
-8.9549357e-10
-8.8802436e-10
-8.803656e-10
-8.7254524e-10
-8.6428123e-10
-8.5603571e-10
-8.478425e-10
-8.3954537e-10
-8.3115358e-10
-8.2248038e-10
-8.1363205e-10
-8.0502898e-10
-7.9637404e-10
-7.8767592e-10
-7.7884724e-10
-7.6965683e-10
-7.6087654e-10
-7.5207209e-10
-7.4324624e-10
-7.3440543e-10
-7.2502476e-10
-7.1616045e-10
-7.072843e-10
-6.9837904e-10
-6.8946145e-10
-6.8007259e-10
-6.7105748e-10
-6.6209457e-10
-6.5314147e-10
-6.4411463e-10
-6.3461282e-10
-6.2549335e-10
-6.1639497e-10
-6.0724387e-10
-5.9810768e-10
-5.884811e-10
-5.7908505e-10
-5.6979927e-10
-5.6048647e-10
-5.5106152e-10
-5.4102279e-10
-5.3137409e-10
-5.2171493e-10
-5.1192637e-10
-5.0403071e-10
-1.5487896e-11
-4.677601e-11
-1.005014e-10
-1.744632e-10
-2.6623986e-10
-3.7068255e-10
-4.8146498e-10
-5.9547996e-10
-7.0227455e-10
-7.9881142e-10
-8.8440014e-10
-9.5801579e-10
-1.0194246e-09
-1.0689385e-09
-1.1082412e-09
-1.1354641e-09
-1.15332e-09
-1.1630554e-09
-1.1656715e-09
-1.1621258e-09
-1.1528741e-09
-1.1390317e-09
-1.1217964e-09
-1.1016432e-09
-1.079146e-09
-1.0548348e-09
-9.9245152e-10
-9.9580847e-10
-9.983424e-10
-9.9993185e-10
-1.0007835e-09
-1.0009527e-09
-1.0003003e-09
-9.9890455e-10
-9.9685098e-10
-9.9421558e-10
-9.9099348e-10
-9.8714888e-10
-9.8298834e-10
-9.7840406e-10
-9.7342304e-10
-9.6807599e-10
-9.6205355e-10
-9.559965e-10
-9.4969317e-10
-9.4315985e-10
-9.3642133e-10
-9.2923524e-10
-9.2200515e-10
-9.1476107e-10
-9.0736485e-10
-8.9982656e-10
-8.9197977e-10
-8.8392231e-10
-8.7604221e-10
-8.6807438e-10
-8.6002844e-10
-8.5182145e-10
-8.4324083e-10
-8.350086e-10
-8.2671328e-10
-8.1836847e-10
-8.099841e-10
-8.0103253e-10
-7.9255193e-10
-7.8402158e-10
-7.7542353e-10
-7.6681115e-10
-7.5771563e-10
-7.4891739e-10
-7.4019089e-10
-7.3146627e-10
-7.22625e-10
-7.13335e-10
-7.0440666e-10
-6.9552021e-10
-6.8656229e-10
-6.775961e-10
-6.681585e-10
-6.5898342e-10
-6.4985901e-10
-6.4068559e-10
-6.3143738e-10
-6.2156439e-10
-6.1203543e-10
-6.0248818e-10
-5.9282738e-10
-5.8585441e-10
-1.357537e-11
-3.7775251e-11
-8.2234071e-11
-1.4575895e-10
-2.2666556e-10
-3.210787e-10
-4.2368608e-10
-5.3183129e-10
-6.3554429e-10
-7.314611e-10
-8.1844968e-10
-8.9506704e-10
-9.6068527e-10
-1.0152661e-09
-1.0604198e-09
-1.0936131e-09
-1.1175122e-09
-1.1332656e-09
-1.1417726e-09
-1.1439241e-09
-1.1402763e-09
-1.1316614e-09
-1.1192516e-09
-1.1036261e-09
-1.085362e-09
-1.065005e-09
-1.007362e-09
-1.0132114e-09
-1.0181823e-09
-1.0221613e-09
-1.0255057e-09
-1.02816e-09
-1.0297896e-09
-1.0305451e-09
-1.0306071e-09
-1.0300506e-09
-1.0288888e-09
-1.0270959e-09
-1.0248439e-09
-1.0221081e-09
-1.0189175e-09
-1.0153058e-09
-1.011038e-09
-1.0066004e-09
-1.0018855e-09
-9.9690764e-10
-9.9168372e-10
-9.8602796e-10
-9.8025637e-10
-9.7438983e-10
-9.6831988e-10
-9.620596e-10
-9.5547408e-10
-9.4864803e-10
-9.4191463e-10
-9.3505919e-10
-9.2808701e-10
-9.2092511e-10
-9.1339819e-10
-9.0612731e-10
-8.987495e-10
-8.9130403e-10
-8.8378418e-10
-8.7567703e-10
-8.6800188e-10
-8.6022781e-10
-8.5237238e-10
-8.445036e-10
-8.3617824e-10
-8.281004e-10
-8.2007297e-10
-8.1203614e-10
-8.0393163e-10
-7.9536077e-10
-7.8709638e-10
-7.7889612e-10
-7.7062861e-10
-7.6230637e-10
-7.5351657e-10
-7.4498678e-10
-7.3647304e-10
-7.2787514e-10
-7.1918918e-10
-7.099066e-10
-7.0091717e-10
-6.9188356e-10
-6.827367e-10
-6.7728365e-10
-1.1906109e-11
-2.9911232e-11
-6.4456675e-11
-1.1600323e-10
-1.8366154e-10
-2.6487979e-10
-3.5562693e-10
-4.5394724e-10
-5.5083478e-10
-6.4281171e-10
-7.2839801e-10
-8.0579887e-10
-8.7399885e-10
-9.3257525e-10
-9.8301046e-10
-1.0220867e-09
-1.052318e-09
-1.0746918e-09
-1.0899512e-09
-1.0988608e-09
-1.1020999e-09
-1.1001024e-09
-1.0939774e-09
-1.0844032e-09
-1.0719384e-09
-1.057127e-09
-1.007027e-09
-1.0159596e-09
-1.0238733e-09
-1.0309764e-09
-1.0377396e-09
-1.0435298e-09
-1.0480655e-09
-1.0516676e-09
-1.0546027e-09
-1.0568979e-09
-1.0585834e-09
-1.0596529e-09
-1.0600857e-09
-1.0599702e-09
-1.0593483e-09
-1.0582367e-09
-1.0565187e-09
-1.0545061e-09
-1.0522036e-09
-1.0495988e-09
-1.0467063e-09
-1.043432e-09
-1.0399275e-09
-1.0362049e-09
-1.03222e-09
-1.0279925e-09
-1.0234413e-09
-1.0186239e-09
-1.013781e-09
-1.0087848e-09
-1.0036092e-09
-9.9822766e-10
-9.9252744e-10
-9.8691763e-10
-9.811762e-10
-9.7535961e-10
-9.6943882e-10
-9.6299023e-10
-9.5687099e-10
-9.5067126e-10
-9.443651e-10
-9.3800772e-10
-9.312658e-10
-9.2474654e-10
-9.1820704e-10
-9.1162321e-10
-9.0499376e-10