/*--------------------------------*- C++ -*----------------------------------*\
| =========                 |                                                 |
| \\      /  F ield         | OpenFOAM: The Open Source CFD Toolbox           |
|  \\    /   O peration     | Version:  2406                                  |
|   \\  /    A nd           | Website:  www.openfoam.com                      |
|    \\/     M anipulation  |                                                 |
\*---------------------------------------------------------------------------*/
FoamFile
{
    version     2.0;
    format      ascii;
    arch        "LSB;label=32;scalar=64";
    class       volScalarField;
    location    "0";
    object      initialResidual:p;
}
// * * * * * * * * * * * * * * * * * * * * * * * * * * * * * * * * * * * * * //

dimensions      [0 0 0 0 0 0 0];

internalField   nonuniform List<scalar> 
18060
(
1.6585256e-12
1.5256058e-12
1.680063e-12
2.3743818e-12
2.180354e-12
1.0679805e-12
1.227028e-12
1.7270621e-12
2.4334226e-12
5.7785968e-12
4.4947344e-12
8.723751e-12
2.7265935e-12
1.1256893e-12
7.7752207e-13
1.0166285e-12
9.2657368e-13
5.3330308e-13
5.9045433e-13
8.260129e-13
1.3240778e-12
2.2352768e-12
2.7209409e-12
3.0236425e-12
3.5036332e-12
9.8843122e-13
6.4308841e-13
8.8122462e-13
8.0077174e-13
5.1124608e-13
5.4829909e-13
7.9695365e-13
1.3348267e-12
2.0272248e-12
2.5269981e-12
2.5685403e-12
4.3297268e-12
1.4398841e-12
8.2805674e-13
1.0877921e-12
9.8325573e-13
6.3891979e-13
6.4239867e-13
9.3975324e-13
1.5394394e-12
2.2906902e-12
2.9206796e-12
3.1425627e-12
4.5464799e-12
2.1750148e-12
9.9791476e-13
1.2302705e-12
1.01956e-12
6.6803191e-13
6.3638262e-13
9.8003894e-13
1.6222285e-12
2.2629185e-12
2.8966936e-12
3.0666262e-12
4.1522125e-12
3.3147395e-12
1.4181678e-12
1.6433965e-12
1.3568419e-12
8.841247e-13
7.9615376e-13
1.2132179e-12
1.9255974e-12
2.6957639e-12
3.5679674e-12
4.0089379e-12
2.7814807e-12
3.6763815e-12
2.2321883e-12
2.00192e-12
1.4412767e-12
9.0817679e-13
7.7345022e-13
1.2293714e-12
1.9483935e-12
2.5403244e-12
3.3392331e-12
3.4954556e-12
1.9837788e-12
2.9644131e-12
3.3222352e-12
2.9943931e-12
1.858996e-12
1.1255249e-12
9.0608198e-13
1.4465026e-12
2.1970377e-12
2.8188906e-12
3.699825e-12
4.016104e-12
1.4144392e-12
2.109369e-12
3.6328103e-12
5.0138781e-12
2.6354086e-12
1.4788801e-12
1.0912485e-12
1.7451337e-12
2.5454196e-12
3.2106631e-12
4.1546373e-12
2.2799659e-12
1.0088863e-12
1.6140346e-12
3.1012797e-12
5.7980538e-12
4.2993658e-12
1.975365e-12
1.3750172e-12
2.163186e-12
3.071773e-12
3.6898742e-12
4.0185128e-12
1.1936433e-11
7.9374439e-13
1.196909e-12
2.240209e-12
5.6057305e-12
5.9020536e-12
3.1214751e-12
1.9672645e-12
2.4574111e-12
3.9598634e-12
5.1709748e-12
6.096192e-12
1.4325514e-11
6.1185208e-13
9.5563129e-13
1.8237863e-12
4.2145064e-12
5.7652875e-12
5.1277237e-12
2.9560034e-12
3.6870429e-12
2.7675918e-12
6.1845128e-12
1.5432241e-11
5.7547543e-12
4.9818268e-13
8.2583558e-13
1.9334085e-12
3.0704942e-12
4.3832886e-12
5.6017086e-12
4.721726e-12
5.8417917e-12
5.5745279e-12
6.4211402e-12
7.415189e-12
1.9820702e-11
2.2164866e-13
3.2629776e-13
1.2577964e-12
2.2239852e-12
3.4086597e-12
5.0459608e-12
7.8468041e-12
9.3699661e-12
8.811805e-12
1.0413296e-11
1.3036578e-11
2.0600455e-11
8.6793669e-14
1.3648488e-13
6.4358168e-13
2.2010183e-12
2.2547174e-12
4.0400185e-12
1.8907186e-12
1.7315562e-11
1.5234297e-11
1.7169138e-11
2.1337233e-11
3.047497e-11
5.3000272e-15
9.2752973e-14
5.2943152e-13
1.7354113e-12
1.8947436e-12
2.6534844e-12
4.997444e-12
1.3044742e-11
1.5781798e-11
3.8195227e-11
2.9946458e-11
4.7780279e-11
1.5777644e-13
1.8162691e-13
8.1162755e-13
1.6556235e-12
2.1081522e-12
2.9680829e-12
3.2116748e-12
9.184872e-12
3.6291587e-11
7.3423054e-11
9.3648713e-11
8.5392347e-11
1.2111858e-13
1.7184457e-13
4.7885441e-13
1.705577e-12
2.0516232e-12
2.8784056e-12
3.4376875e-12
8.8673194e-12
1.9719151e-11
-2.7605677e-11
1.4473904e-10
1.9567703e-10
-3.8151131e-14
-2.0613026e-14
2.8682608e-13
1.2820396e-12
1.4366126e-12
2.2280184e-12
2.8701801e-12
8.0921554e-12
1.0749966e-11
3.989196e-11
4.3973737e-11
2.9638264e-10
-1.750105e-13
-2.6240689e-13
5.3868206e-14
4.543202e-13
7.3746311e-13
1.4908307e-12
2.3808716e-12
6.0253782e-12
8.2114915e-12
1.0503537e-11
5.4572495e-11
3.706328e-10
-1.3575669e-13
-1.4845573e-13
1.952551e-14
3.1698683e-13
5.7908246e-13
1.4281782e-12
2.1765249e-12
4.5574717e-12
3.0947418e-12
1.0032441e-11
5.184724e-11
-8.4416545e-13
7.1533857e-14
9.4724799e-14
3.125395e-13
6.4001263e-13
7.562877e-13
1.4067424e-12
2.4724421e-12
6.3095076e-12
9.2696792e-12
1.655953e-11
1.0371117e-11
7.4448759e-11
9.8314345e-14
1.7156508e-13
2.9535601e-13
5.0657749e-13
6.400618e-13
1.3021979e-12
2.2662184e-12
4.2521809e-12
3.1471902e-12
1.8299383e-11
1.5697339e-11
6.783876e-12
7.6192354e-14
9.948634e-14
8.0913616e-14
9.1520445e-14
-2.9079523e-14
2.1759468e-13
1.2615834e-12
3.05299e-12
3.8071075e-12
1.0092332e-11
8.1602286e-12
3.021275e-12
1.7810075e-13
2.4521072e-13
2.2665306e-13
1.8712895e-13
7.5407864e-14
2.6848529e-13
1.1533603e-12
1.5618219e-12
7.0612299e-14
1.0077021e-11
9.0577659e-12
7.9485183e-12
2.9571669e-13
4.0250419e-13
5.0906013e-13
6.3773177e-13
6.3380105e-13
7.1321704e-13
1.3381664e-12
2.6593445e-12
3.2793106e-12
9.8416791e-12
9.1136933e-12
1.1865609e-11
2.6648958e-13
3.7027384e-13
4.8472562e-13
5.9345012e-13
6.6704575e-13
7.6352356e-13
1.2534083e-12
1.5037566e-12
9.1440195e-13
9.8599904e-12
8.4347407e-12
1.0925979e-11
2.436537e-13
3.7134687e-13
4.2069462e-13
4.2038486e-13
4.5493619e-13
4.3867792e-13
8.3854091e-13
1.2565452e-13
-5.5552303e-14
4.0395347e-12
1.5413099e-12
1.1020578e-11
1.6731944e-13
3.6405193e-13
4.9820796e-13
5.1750608e-13
6.2283995e-13
7.5954523e-13
1.0272273e-12
-4.0698276e-13
-2.0810191e-12
2.054606e-12
6.7912942e-12
2.2267138e-11
1.5641383e-13
3.301727e-13
4.684222e-13
5.8043674e-13
8.208218e-13
1.1439496e-12
1.488403e-12
1.0433309e-12
2.0179787e-12
5.2107697e-12
-1.7348468e-14
4.9546485e-12
2.290743e-13
3.7249325e-13
4.4071824e-13
4.9094924e-13
7.446502e-13
1.1898045e-12
1.5677508e-12
5.2439465e-13
4.4402285e-13
4.5134342e-12
7.1156054e-13
-4.2478837e-12
2.1707962e-13
2.8079501e-13
4.0334629e-13
5.2339455e-13
7.453344e-13
1.092047e-12
1.4173655e-12
3.7109819e-13
1.0265752e-12
2.0745964e-12
-4.8709021e-12
-9.6591154e-12
2.3903225e-13
2.7432948e-13
3.1988741e-13
4.5400699e-13
7.6175051e-13
1.2079324e-12
1.6413425e-12
1.0020742e-12
1.7135659e-12
2.1659032e-12
-6.1896994e-13
-3.3109185e-13
2.8516656e-13
3.1185539e-13
3.3438307e-13
4.0594336e-13
6.0656701e-13
1.1316393e-12
1.7171504e-12
1.6864442e-12
3.3936619e-12
4.178113e-12
1.3677887e-12
-7.8885542e-13
3.5107335e-13
3.525816e-13
3.4603102e-13
4.1502828e-13
6.0945885e-13
1.0614718e-12
1.5881927e-12
1.8117462e-12
3.5311391e-12
3.7345161e-12
2.1416376e-12
-4.9006611e-12
3.8458159e-13
4.3468076e-13
4.4759089e-13
4.5982988e-13
6.5514262e-13
1.153525e-12
1.7010066e-12
1.9804901e-12
3.257246e-12
4.2984235e-12
4.008713e-12
-1.8858184e-11
4.3369174e-13
4.694427e-13
5.8879708e-13
6.5657879e-13
8.3489984e-13
1.0481562e-12
1.5585769e-12
2.4870888e-12
4.5815935e-12
5.7208678e-12
6.5590723e-13
2.1608306e-12
5.3832382e-13
5.5673778e-13
6.8390804e-13
7.3883028e-13
8.5900722e-13
1.0789602e-12
1.6148669e-12
2.5552276e-12
4.2985741e-12
4.9826582e-12
1.0902036e-11
-2.572406e-14
5.9971694e-13
6.4177696e-13
7.7875645e-13
9.2779037e-13
1.0743128e-12
1.3008315e-12
1.4526509e-12
3.2684372e-12
6.7773404e-12
7.6413825e-12
1.8592862e-11
-1.0954323e-11
6.6939285e-13
7.2691403e-13
8.4212492e-13
1.0587463e-12
1.2475585e-12
1.3274986e-12
2.4903887e-12
3.2825602e-12
8.4803167e-12
6.8590001e-12
2.3485274e-11
-1.0513627e-11
6.3086428e-13
7.1707451e-13
8.5655338e-13
1.1891783e-12
1.5395712e-12
1.9294959e-12
3.6599483e-12
2.9003936e-12
5.7595353e-12
1.9260273e-11
2.3153793e-11
-1.5382129e-11
5.6755852e-13
6.6205665e-13
7.608625e-13
1.1786002e-12
1.7524873e-12
2.5017898e-12
3.2165662e-12
5.8356084e-12
2.0444002e-12
2.1487718e-11
2.6125949e-11
-1.9110983e-11
6.5540437e-12
4.3394448e-12
4.3973385e-12
3.2877843e-12
5.8869021e-12
1.0242004e-12
2.8381425e-12
-1.8787349e-12
2.9603594e-13
-8.0412267e-13
-1.0292037e-12
4.5007461e-12
1.5801816e-12
-7.3725449e-12
-2.6232027e-13
1.0990467e-13
2.4700693e-12
-1.234035e-12
-1.6692957e-12
-8.7741064e-14
3.00851e-13
-6.6403313e-13
-4.6817512e-13
1.1573036e-12
2.5037361e-13
-1.3918894e-12
-2.3494184e-14
2.1880021e-13
-1.31482e-13
-3.06998e-13
-7.5422847e-14
8.3553966e-13
-5.0494011e-13
1.0165023e-13
7.7584288e-13
1.6490274e-13
1.98455e-13
-2.2138479e-13
4.2959142e-13
2.6720113e-13
2.3435634e-13
1.5142169e-13
9.3260954e-14
1.5844755e-13
4.0391802e-13
4.325556e-13
3.6704149e-13
2.6765617e-13
2.9031786e-13
3.8339251e-13
2.2803559e-13
5.4662996e-13
-3.0355522e-15
1.6977739e-13
1.6410855e-13
1.254546e-13
-7.980918e-14
-9.7330147e-14
-2.4676804e-13
6.1650673e-15
6.0217218e-13
1.9008519e-13
2.9175765e-13
-1.6883652e-13
-4.6344925e-15
2.1615337e-13
-1.7469304e-12
1.4818907e-13
-4.5054595e-13
-6.2096517e-13
-6.5924901e-13
-6.9345427e-13
-9.6001532e-13
-7.2832879e-13
2.1905379e-12
-1.4452158e-12
-1.9346683e-12
-2.4390579e-12
-8.6300559e-13
9.3420131e-13
3.7379083e-12
-7.2636369e-12
-1.8824138e-12
-7.6105496e-13
-9.1639998e-15
-3.5323019e-13
-3.7288685e-13
-6.1472034e-12
1.8539273e-12
2.2693131e-12
1.4340933e-12
9.3196137e-13
8.9587866e-13
2.5143193e-13
9.0249694e-13
-1.0444434e-12
-4.1785571e-13
-8.7040224e-13
-9.1438871e-13
-5.5010145e-13
-4.1541422e-14
-1.4209242e-12
-4.8196922e-13
-2.4161776e-13
-1.1108642e-13
-5.7435131e-13
-4.5379143e-13
-3.7082577e-13
-1.4100572e-13
-5.3960285e-13
-4.2953369e-13
-1.3327478e-13
-8.922721e-14
-2.7033469e-13
-1.6457573e-13
-1.2606393e-13
-2.3114031e-13
-3.1818776e-13
-2.7623277e-13
2.6098226e-14
-3.6436846e-13
-1.6929891e-13
3.5711679e-14
-1.1119442e-13
-7.7991235e-14
-8.0503061e-14
4.8034486e-14
-2.0594734e-14
-4.561595e-14
-8.4053171e-14
-7.028479e-14
-7.7657854e-14
-5.5801478e-14
3.4456552e-14
3.2028293e-15
-9.4408463e-14
-5.7787567e-14
-9.2566078e-14
-1.1112201e-13
-7.4273775e-14
-1.1608846e-13
-1.6462773e-13
-1.6072e-13
-1.8827346e-13
-3.7118589e-13
-3.3667128e-13
-4.1483997e-13
-2.712523e-13
-2.6258055e-13
-3.5076248e-13
-3.8473631e-13
-4.5431554e-13
-4.1748404e-13
-3.0596766e-13
-8.219854e-13
-5.7983809e-13
-7.9764474e-13
-9.1236057e-13
-9.8991794e-13
-1.0661726e-12
-1.2159969e-12
-1.2976471e-12
-1.0815478e-12
-1.4595775e-12
-1.6671957e-12
-1.8731187e-12
-1.8744468e-12
-1.6615999e-12
-1.1071097e-12
-2.8653049e-12
-2.5917401e-12
-2.4456774e-12
-2.4119356e-12
-2.8751262e-12
-3.1175501e-12
-4.9919348e-12
1.0479727e-12
1.8105178e-12
6.2860379e-13
-2.9342418e-14
-2.8821692e-13
-5.6865875e-13
-2.0323302e-13
-1.5533858e-12
-1.1607049e-12
-1.4176621e-12
-1.3541003e-12
-1.3496459e-12
-7.2990382e-13
-1.4643512e-12
-9.4576273e-13
-6.9339458e-13
-6.3153331e-13
-9.6136568e-13
-6.8348023e-13
-7.5566863e-13
-4.3346681e-13
-7.7771653e-13
-7.0088493e-13
-4.4373508e-13
-3.6836364e-13
-4.348955e-13
-3.9650021e-13
-4.1042762e-13
-4.416123e-13
-5.3773431e-13
-4.9265072e-13
-2.8549812e-13
-5.4473454e-13
-4.0561309e-13
-2.6950813e-13
-3.4249581e-13
-3.1026035e-13
-2.991647e-13
-2.3344514e-13
-2.9061658e-13
-3.1392285e-13
-3.6526342e-13
-2.8106099e-13
-3.3486048e-13
-3.1698599e-13
-2.4954959e-13
-2.8150722e-13
-3.8493918e-13
-3.400469e-13
-4.1832876e-13
-4.1907378e-13
-4.5011503e-13
-4.8893208e-13
-5.4839719e-13
-5.472372e-13
-6.039232e-13
-8.3185501e-13
-7.7745643e-13
-8.3456626e-13
-7.2120658e-13
-7.5918311e-13
-8.7046415e-13
-9.7694089e-13
-1.0722101e-12
-1.0862814e-12
-1.0202739e-12
-1.3594661e-12
-1.3911508e-12
-1.6137118e-12
-1.7342111e-12
-1.9015533e-12
-2.0377878e-12
-2.2277703e-12
-2.5167955e-12
-2.5273944e-12
-2.8403245e-12
-3.1023081e-12
-3.3591164e-12
-3.5377245e-12
-3.9241661e-12
-3.8211806e-12
-4.4592708e-12
-5.007422e-12
-5.3801328e-12
-5.8010718e-12
-6.6163345e-12
-7.1265775e-12
-8.4336992e-12
1.508476e-12
2.1608732e-12
8.7804349e-13
-3.8954639e-14
-4.6686775e-13
-8.6051163e-13
-5.7441852e-13
-1.9912182e-12
-1.7525453e-12
-2.0557659e-12
-1.9614731e-12
-2.0457736e-12
-1.2942314e-12
-2.0280069e-12
-1.4513596e-12
-1.0976521e-12
-1.1088525e-12
-1.4024482e-12
-1.1015363e-12
-1.1475946e-12
-8.2149678e-13
-1.1537953e-12
-1.0152244e-12
-7.6443841e-13
-6.283197e-13
-6.5984817e-13
-6.2914818e-13
-6.5052437e-13
-6.8048873e-13
-7.7216043e-13
-7.3619829e-13
-5.2994648e-13
-7.5697054e-13
-6.1668035e-13
-4.8254177e-13
-5.367439e-13
-4.96289e-13
-4.931698e-13
-4.1145929e-13
-4.5827464e-13
-5.0866097e-13
-5.4197834e-13
-4.7001164e-13
-5.0944425e-13
-5.0618883e-13
-4.1680218e-13
-4.5296194e-13
-5.7091787e-13
-5.286088e-13
-6.1556827e-13
-6.2325424e-13
-6.5390824e-13
-6.7039256e-13
-8.0084658e-13
-8.1344212e-13
-8.9304457e-13
-1.1534398e-12
-1.1032899e-12
-1.1738991e-12
-1.0639615e-12
-1.1338172e-12
-1.2766892e-12
-1.4154559e-12
-1.5292351e-12
-1.5560672e-12
-1.5270287e-12
-1.9142407e-12
-2.0516225e-12
-2.2871769e-12
-2.4743142e-12
-2.7043832e-12
-2.915397e-12
-3.1950638e-12
-3.6141161e-12
-3.6739542e-12
-4.0468095e-12
-4.4368717e-12
-4.8338991e-12
-5.1716848e-12
-5.5841639e-12
-5.7245163e-12
-6.4519105e-12
-7.3550198e-12
-7.9547443e-12
-8.6445301e-12
-9.9032806e-12
-1.0895467e-11
-1.3068843e-11
1.5913368e-12
2.0803409e-12
7.9736575e-13
-4.0574408e-13
-9.9467345e-13
-1.2498868e-12
-1.2200058e-12
-2.3312721e-12
-2.2381692e-12
-2.4484388e-12
-2.3028157e-12
-2.5032751e-12
-1.8210102e-12
-2.217064e-12
-1.8597552e-12
-1.5224782e-12
-1.4963736e-12
-1.75112e-12
-1.3669578e-12
-1.4857211e-12
-1.0630233e-12
-1.3709913e-12
-1.2685929e-12
-1.0247366e-12
-8.9699953e-13
-8.4527246e-13
-8.4544492e-13
-8.9338148e-13
-8.6929874e-13
-9.6363821e-13
-9.1071747e-13
-7.6529065e-13
-9.261536e-13
-8.1551636e-13
-7.1785721e-13
-7.321544e-13
-6.8798147e-13
-6.6954531e-13
-6.5367599e-13
-6.8115118e-13
-7.3268849e-13
-7.7305788e-13
-6.315888e-13
-7.0064574e-13
-6.9728598e-13
-6.3254806e-13
-6.6770459e-13
-7.7790831e-13
-7.4078839e-13
-8.4354878e-13
-8.48949e-13
-9.1388498e-13
-9.1921108e-13
-1.0744351e-12
-1.0983032e-12
-1.2057063e-12
-1.4758122e-12
-1.4168813e-12
-1.4484992e-12
-1.396336e-12
-1.4831047e-12
-1.6494007e-12
-1.8335125e-12
-1.9721021e-12
-2.0383519e-12
-2.0640814e-12
-2.3114538e-12
-2.5744807e-12
-2.8874819e-12
-3.0297055e-12
-3.3792997e-12
-3.6089615e-12
-3.9425531e-12
-4.4894086e-12
-4.6367881e-12
-5.0532056e-12
-5.4900048e-12
-5.9361198e-12
-6.3820453e-12
-7.2125627e-12
-7.6202556e-12
-7.8557833e-12
-9.2737188e-12
-1.0258796e-11
-1.1300344e-11
-1.2955814e-11
-1.415921e-11
-1.6608807e-11
3.0134237e-12
3.0945025e-12
1.8758402e-12
3.2709064e-13
-4.8093503e-13
-1.0156653e-12
-1.0576329e-12
-2.5331601e-12
-2.5994714e-12
-2.9872295e-12
-2.859482e-12
-3.100643e-12
-2.2808089e-12
-2.8852589e-12
-2.3523654e-12
-1.8972464e-12
-1.9402359e-12
-2.2000889e-12
-1.824308e-12
-1.8772438e-12
-1.4327318e-12
-1.7811571e-12
-1.5979843e-12
-1.3356415e-12
-1.1378176e-12
-1.064383e-12
-1.0693283e-12
-1.1036115e-12
-1.1023483e-12
-1.1838366e-12
-1.1423697e-12
-9.6719481e-13
-1.1270081e-12
-9.9518135e-13
-8.7383366e-13
-8.8324603e-13
-8.2759275e-13
-8.2022598e-13
-7.7473273e-13
-7.8065687e-13
-8.5774038e-13
-8.6914151e-13
-7.4307367e-13
-7.7551526e-13
-7.9645197e-13
-6.9985491e-13
-7.3503968e-13
-8.5654864e-13
-8.1790529e-13
-9.1531656e-13
-9.2790175e-13
-9.6882218e-13
-9.3126468e-13
-1.1640827e-12
-1.2058219e-12
-1.3351253e-12
-1.6270405e-12
-1.5692901e-12
-1.6139127e-12
-1.5480639e-12
-1.6591667e-12
-1.8507891e-12
-2.0466234e-12
-2.1914706e-12
-2.2516122e-12
-2.3004302e-12
-2.6185773e-12
-2.8825899e-12
-3.3206368e-12
-3.4458986e-12
-3.9162477e-12
-4.1671853e-12
-4.6024743e-12
-5.2305177e-12
-5.3503598e-12
-5.8394156e-12
-6.3998953e-12
-6.9844333e-12
-7.5588486e-12
-8.2949923e-12
-8.8390055e-12
-9.4123883e-12
-1.1118089e-11
-1.2264953e-11
-1.3569784e-11
-1.5743431e-11
-1.7525458e-11
-2.155568e-11
3.7498424e-12
3.1246649e-12
2.0968289e-12
2.6710372e-13
-6.9790888e-13
-1.0531344e-12
-1.4593033e-12
-2.5643152e-12
-2.7589402e-12
-3.0838894e-12
-2.9563878e-12
-3.2833352e-12
-2.6946538e-12
-2.794156e-12
-2.6568946e-12
-2.3182505e-12
-2.2399719e-12
-2.4491178e-12
-1.9959918e-12
-2.1548162e-12
-1.5342286e-12
-1.9058616e-12
-1.8340922e-12
-1.5553374e-12
-1.4043103e-12
-1.194303e-12
-1.2660443e-12
-1.327508e-12
-1.2462907e-12
-1.3303154e-12
-1.2449627e-12
-1.1552665e-12
-1.2423321e-12
-1.1489041e-12
-1.0727522e-12
-1.0388471e-12
-9.7645096e-13
-9.0075365e-13
-9.8225517e-13
-9.7303341e-13
-1.0077939e-12
-1.0498876e-12
-8.0212864e-13
-8.9717106e-13
-9.0100213e-13
-8.5294793e-13
-8.8041206e-13
-9.6884865e-13
-9.4016451e-13
-1.0387559e-12
-1.0432915e-12
-1.1200832e-12
-1.0706819e-12
-1.2734584e-12
-1.3224169e-12
-1.4646163e-12
-1.7193985e-12
-1.6526479e-12
-1.6285615e-12
-1.6570599e-12
-1.7648255e-12
-1.9558411e-12
-2.1768701e-12
-2.3382082e-12
-2.4471983e-12
-2.5512719e-12
-2.6096311e-12
-2.9361063e-12
-3.5180876e-12
-3.5288354e-12
-4.128807e-12
-4.3445155e-12
-4.8126501e-12
-5.4664594e-12
-5.7120863e-12
-6.2453741e-12
-6.7991016e-12
-7.3843902e-12
-8.0525075e-12
-9.2713291e-12
-1.003926e-11
-1.0167654e-11
-1.2233859e-11
-1.382064e-11
-1.5596483e-11
-1.8059902e-11
-2.0186557e-11
-2.4789472e-11
6.0412555e-12
3.8176333e-12
3.4115085e-12
1.2690832e-12
8.441153e-14
-4.2384843e-13
-1.0494979e-12
-2.3470567e-12
-2.7067568e-12
-3.2041927e-12
-3.1375428e-12
-3.5367902e-12
-2.9889766e-12
-3.0456304e-12
-2.9756936e-12
-2.6350729e-12
-2.5473217e-12
-2.7501945e-12
-2.2866253e-12
-2.4403347e-12
-1.7188838e-12
-2.1613529e-12
-2.0997439e-12
-1.7845683e-12
-1.6089904e-12
-1.3189873e-12
-1.4350116e-12
-1.4938068e-12
-1.3958423e-12
-1.4722173e-12
-1.3690549e-12
-1.2896799e-12
-1.3535418e-12
-1.2556637e-12
-1.1741404e-12
-1.1207629e-12
-1.0433752e-12
-9.2355921e-13
-1.0340598e-12
-1.0227273e-12
-1.0149219e-12
-1.0788297e-12
-7.5748841e-13
-8.7802292e-13
-8.7560433e-13
-8.2237053e-13
-8.3949821e-13
-9.1130174e-13
-8.8027957e-13
-9.6351089e-13
-9.6127653e-13
-1.0258756e-12
-9.4246348e-13
-1.1463599e-12
-1.2013219e-12
-1.3484269e-12
-1.581899e-12
-1.5081759e-12
-1.462465e-12
-1.5070029e-12
-1.6115042e-12
-1.7981727e-12
-2.0155042e-12
-2.1728506e-12
-2.2854166e-12
-2.4034395e-12
-2.3840856e-12
-2.7142739e-12
-3.4014949e-12
-3.3790094e-12
-4.0545066e-12
-4.2624793e-12
-4.7825818e-12
-5.4313169e-12
-5.702237e-12
-6.2904229e-12
-6.8975138e-12
-7.5514169e-12
-8.3182075e-12
-9.6083533e-12
-1.0493368e-11
-1.0769038e-11
-1.3027288e-11
-1.4903221e-11
-1.7066479e-11
-1.9917808e-11
-2.2673487e-11
-2.9204413e-11
1.0194796e-11
5.5997606e-12
5.1884113e-12
2.7352792e-12
1.2844553e-12
6.3448536e-13
-2.739307e-13
-1.8366585e-12
-2.3717689e-12
-3.13202e-12
-3.1707061e-12
-3.6530544e-12
-3.1600096e-12
-3.1846193e-12
-3.2142546e-12
-2.8904895e-12
-2.7865704e-12
-2.9927615e-12
-2.5201239e-12
-2.6791846e-12
-1.8474148e-12
-2.3774805e-12
-2.3305207e-12
-1.9674789e-12
-1.7651536e-12
-1.3853461e-12
-1.5594942e-12
-1.620007e-12
-1.4985829e-12
-1.5768085e-12
-1.4467001e-12
-1.3750444e-12
-1.415322e-12
-1.3083433e-12
-1.2164403e-12
-1.1414554e-12
-1.0459833e-12
-8.6412015e-13
-9.9906309e-13
-9.9673519e-13
-9.201584e-13
-1.0239186e-12
-6.049052e-13
-7.6675193e-13
-7.400786e-13
-6.7776928e-13
-6.7790767e-13
-7.2679856e-13
-6.8727648e-13
-7.4742345e-13
-7.3221853e-13
-7.7708841e-13
-6.6112083e-13
-8.4692461e-13
-9.0011946e-13
-1.0422567e-12
-1.2431184e-12
-1.1573166e-12
-1.0869209e-12
-1.1349223e-12
-1.2260242e-12
-1.3966355e-12
-1.5985578e-12
-1.7421199e-12
-1.8485035e-12
-1.9614154e-12
-1.8653329e-12
-2.1921806e-12
-2.9418051e-12
-2.9176225e-12
-3.6225558e-12
-3.8303871e-12
-4.3793644e-12
-4.9946244e-12
-5.2927403e-12
-5.9256533e-12
-6.5720984e-12
-7.2814602e-12
-8.135245e-12
-9.4771241e-12
-1.0454878e-11
-1.081776e-11
-1.3240913e-11
-1.5433149e-11
-1.7975975e-11
-2.1171298e-11
-2.4531784e-11
-3.3865322e-11
6.0933198e-12
7.6252952e-12
7.5586128e-12
4.7663073e-12
3.0184401e-12
2.2552809e-12
9.2661984e-13
-9.5877822e-13
-1.6745854e-12
-2.8236325e-12
-3.0110426e-12
-3.585904e-12
-3.1676598e-12
-3.170507e-12
-3.3406287e-12
-3.0572778e-12
-2.9321819e-12
-3.1524725e-12
-2.669544e-12
-2.8436052e-12
-1.9039253e-12
-2.5277598e-12
-2.509409e-12
-2.0815948e-12
-1.8490352e-12
-1.3638415e-12
-1.6173071e-12
-1.6913853e-12
-1.5290289e-12
-1.6316949e-12
-1.4552224e-12
-1.3881515e-12
-1.4057302e-12
-1.2846981e-12
-1.1780677e-12
-1.0787489e-12
-9.592441e-13
-6.9634445e-13
-8.5404502e-13
-8.7085685e-13
-7.0045737e-13
-8.610569e-13
-3.2192099e-13
-5.3954127e-13
-4.6477941e-13
-3.9287591e-13
-3.7066413e-13
-3.8902181e-13
-3.3421932e-13
-3.6409226e-13
-3.3009998e-13
-3.4844499e-13
-2.0615244e-13
-3.4381179e-13
-3.8653474e-13
-5.1335315e-13
-6.7129656e-13
-5.6752552e-13
-4.6937989e-13
-5.052289e-13
-5.732865e-13
-7.1742373e-13
-8.9112064e-13
-1.0086984e-12
-1.0982528e-12
-1.1851971e-12
-1.0093667e-12
-1.3352805e-12
-2.0926045e-12
-2.093611e-12
-2.7788832e-12
-2.9929896e-12
-3.5410523e-12
-4.0982843e-12
-4.3707893e-12
-5.0329608e-12
-5.6909435e-12
-6.4305881e-12
-7.3641951e-12
-8.7331342e-12
-9.7624214e-12
-1.0150472e-11
-1.2722051e-11
-1.5175689e-11
-1.802411e-11
-2.1494686e-11
-2.5382416e-11
-3.8998574e-11
7.5583169e-12
1.0421768e-11
1.0707671e-11
7.4585505e-12
5.5206381e-12
4.4664198e-12
2.7160495e-12
3.897009e-13
-5.1898906e-13
-2.1993389e-12
-2.6121239e-12
-3.2865894e-12
-2.9644153e-12
-2.9542577e-12
-3.3113082e-12
-3.098094e-12
-2.9541971e-12
-3.1931066e-12
-2.7159448e-12
-2.9123774e-12
-1.8431635e-12
-2.5944949e-12
-2.6035172e-12
-2.0982877e-12
-1.8315453e-12
-1.2276559e-12
-1.5779029e-12
-1.6817234e-12
-1.4649467e-12
-1.6167687e-12
-1.3719217e-12
-1.3035678e-12
-1.2988221e-12
-1.1585204e-12
-1.0327498e-12
-9.0644152e-13
-7.5755028e-13
-3.9377111e-13
-5.7665579e-13
-6.1093121e-13
-3.4331037e-13
-5.5331332e-13
1.049096e-13
-1.6144302e-13
-2.1910348e-14
6.2837719e-14
1.1366043e-13
1.3138409e-13
2.0843015e-13
2.1618105e-13
2.7485897e-13
2.9164471e-13
4.6573726e-13
3.8265231e-13
3.6271029e-13
2.6397295e-13
1.6090768e-13
2.9033745e-13
4.2574188e-13
4.2909561e-13
3.8232258e-13
2.7729606e-13
1.4554918e-13
7.2457669e-14
1.4762448e-14
-2.3589545e-14
2.4425826e-13
-9.5966456e-14
-7.819248e-13
-8.1169053e-13
-1.4262896e-12
-1.6416759e-12
-2.1481759e-12
-2.6112882e-12
-2.8550711e-12
-3.5534551e-12
-4.1959455e-12
-4.9305479e-12
-5.8770401e-12
-7.1993296e-12
-8.187963e-12
-8.6245327e-12
-1.1236985e-11
-1.3880734e-11
-1.692127e-11
-2.0558172e-11
-2.4855943e-11
-4.4837142e-11
1.6959192e-11
1.3906695e-11
1.4885958e-11
1.1131089e-11
8.9218421e-12
7.4254703e-12
5.2013434e-12
2.3264469e-12
1.1924105e-12
-1.1614197e-12
-1.8851627e-12
-2.6734215e-12
-2.4775124e-12
-2.4725089e-12
-3.071631e-12
-2.9512036e-12
-2.7993401e-12
-3.0719778e-12
-2.6106832e-12
-2.8585425e-12
-1.6225381e-12
-2.5508811e-12
-2.5747875e-12
-1.9850686e-12
-1.6792199e-12
-9.4498622e-13
-1.408702e-12
-1.5604003e-12
-1.2785545e-12
-1.5027918e-12
-1.164855e-12
-1.0913e-12
-1.0651128e-12
-9.0025574e-13
-7.51178e-13
-5.9487104e-13
-4.0654337e-13
6.4172868e-14
-1.3931336e-13
-1.7899354e-13
1.7407531e-13
-6.0477827e-14
6.9722971e-13
4.0544438e-13
6.139321e-13
7.2021061e-13
8.0338608e-13
8.6403643e-13
9.6978026e-13
1.0216196e-12
1.1116467e-12
1.1684015e-12
1.378125e-12
1.365903e-12
1.3822815e-12
1.3242471e-12
1.2864536e-12
1.4507331e-12
1.6341255e-12
1.725478e-12
1.6688391e-12
1.6179292e-12
1.5457352e-12
1.5481193e-12
1.5348974e-12
1.5661426e-12
1.9677522e-12
1.6305001e-12
1.0141036e-12
9.5445793e-13
4.4943989e-13
2.4975183e-13
-1.6789394e-13
-4.7194703e-13
-6.8604848e-13
-1.3925905e-12
-1.9913689e-12
-2.6789678e-12
-3.5530128e-12
-4.7424667e-12
-5.6184704e-12
-6.11549e-12
-8.6165071e-12
-1.1330143e-11
-1.4408349e-11
-1.8105176e-11
-2.2666521e-11
-5.1715156e-11
2.3044137e-11
1.8497908e-11
2.0352183e-11
1.616956e-11
1.3265881e-11
1.1417167e-11
8.5313691e-12
4.9832801e-12
3.5684705e-12
3.9476703e-13
-7.43988e-13
-1.6605058e-12
-1.6285879e-12
-1.646327e-12
-2.5560232e-12
-2.5667699e-12
-2.4137441e-12
-2.7453367e-12
-2.2839575e-12
-2.6371144e-12
-1.1987851e-12
-2.355579e-12
-2.3740207e-12
-1.70628e-12
-1.3558607e-12
-4.8462939e-13
-1.0775092e-12
-1.2912286e-12
-9.4642582e-13
-1.247739e-12
-8.0313507e-13
-7.2266351e-13
-6.7528171e-13
-4.8069462e-13
-3.0425185e-13
-1.1455402e-13
1.2695619e-13
6.9893224e-13
4.8534321e-13
4.5587411e-13
8.7461173e-13
6.5042379e-13
1.4736201e-12
1.1905317e-12
1.4785099e-12
1.6024814e-12
1.7218632e-12
1.8385807e-12
1.9823677e-12
2.0830676e-12
2.2115982e-12
2.3140581e-12
2.5548332e-12
2.6228109e-12
2.6910714e-12
2.6888995e-12
2.7275547e-12
2.9381624e-12
3.1846346e-12
3.4130393e-12
3.3323606e-12
3.3385767e-12
3.3409809e-12
3.4295085e-12
3.4772464e-12
3.6017912e-12
4.1621874e-12
3.8640763e-12
3.3119468e-12
3.2345084e-12
2.8618019e-12
2.7058443e-12
2.4248258e-12
2.3041354e-12
2.1350302e-12
1.5006778e-12
9.7193139e-13
3.8023047e-13
-3.1454861e-13
-1.342943e-12
-2.0708796e-12
-2.6705127e-12
-4.9895965e-12
-7.6162386e-12
-1.0611756e-11
-1.4299727e-11
-1.8762217e-11
-5.9325487e-11
3.3186699e-11
2.5717182e-11
2.8059176e-11
2.2941182e-11
1.9291456e-11
1.6940279e-11
1.3045033e-11
8.9484987e-12
7.1803939e-12
3.1137561e-12
1.3046364e-12
3.0450393e-13
-8.9081075e-14
1.9523583e-13
-1.4125074e-12
-1.8204364e-12
-1.5585223e-12
-1.9027549e-12
-1.4626945e-12
-1.973508e-12
-3.5178767e-13
-1.7384383e-12
-1.7563435e-12
-1.0942336e-12
-7.5423366e-13
2.7981806e-13
-4.6760681e-13
-7.6017436e-13
-3.5582715e-13
-6.5722139e-13
-1.4150537e-13
-7.6107438e-14
3.5091666e-14
2.3390773e-13
4.151767e-13
6.4459659e-13
9.4811982e-13
1.6268678e-12
1.3838992e-12
1.3983792e-12
1.8343547e-12
1.7133127e-12
2.4978931e-12
2.3066868e-12
2.6886331e-12
2.7978151e-12
2.9615414e-12
3.1647477e-12
3.3364721e-12
3.5055105e-12
3.6911214e-12
3.843054e-12
4.1398643e-12
4.2865086e-12
4.4432343e-12
4.5513058e-12
4.7288026e-12
4.9954227e-12
5.3532291e-12
5.6606465e-12
5.6265582e-12
5.71903e-12
5.8256407e-12
5.9919401e-12
6.1116204e-12
6.3541382e-12
7.073166e-12
6.881348e-12
6.5113003e-12
6.4544305e-12
6.2772171e-12
6.229357e-12
6.1507399e-12
6.1943855e-12
6.0350079e-12
5.5167102e-12
5.1024091e-12
4.6797546e-12
4.0485165e-12
3.2731657e-12
2.7706703e-12
2.0960841e-12
2.8843655e-13
-1.8221391e-12
-4.3170279e-12
-7.3854614e-12
-1.125922e-11
-6.7112086e-11
4.7569474e-11
3.5828515e-11
3.9132256e-11
3.2614455e-11
2.7702585e-11
2.4394569e-11
1.9226627e-11
1.4158387e-11
1.1824317e-11
6.6597007e-12
4.0590665e-12
2.8719588e-12
2.0939455e-12
2.4541534e-12
2.0586528e-13
-5.8475025e-13
-2.8506637e-13
-6.8162246e-13
-3.1775034e-13
-9.2842532e-13
7.2640163e-13
-8.7791975e-13
-8.3473261e-13
-2.0501591e-13
1.5015584e-13
1.2815655e-12
3.9708171e-13
3.0777451e-14
4.5239042e-13
1.7510954e-13
7.424011e-13
8.1111602e-13
9.7474013e-13
1.1883329e-12
1.3889489e-12
1.6559965e-12
2.0264793e-12
2.784831e-12
2.5592302e-12
2.6398157e-12
3.0641708e-12
3.0800954e-12
3.7818132e-12
3.7220394e-12
4.1771166e-12
4.2395525e-12
4.4569176e-12
4.7688246e-12
4.9869076e-12
5.2287599e-12
5.4779838e-12
5.6848771e-12
6.0679895e-12
6.2913283e-12
6.5377653e-12
6.7558071e-12
7.0555759e-12
7.3917293e-12
7.8522678e-12
8.2512691e-12
8.3010986e-12
8.4758233e-12
8.7016687e-12
8.9476056e-12
9.1728473e-12
9.5655866e-12
1.0341084e-11
1.0276972e-11
1.0097472e-11
1.0068871e-11
1.0040889e-11
1.0054166e-11
1.0062157e-11
1.0275411e-11
1.0184635e-11
9.7869761e-12
9.6171355e-12
9.4512282e-12
9.1724188e-12
8.8162033e-12
8.6432233e-12
8.2194793e-12
7.0516527e-12
5.5126003e-12
3.6994325e-12
1.4122128e-12
-1.6702795e-12
-7.5132479e-11
7.047244e-11
5.0379467e-11
5.4518379e-11
4.5767058e-11
3.8924332e-11
3.4182418e-11
2.7322276e-11
2.0848309e-11
1.7634741e-11
1.1230726e-11
7.6548314e-12
6.1917828e-12
4.9977365e-12
5.3021003e-12
2.385026e-12
1.1651344e-12
1.4282401e-12
9.6733524e-13
1.168681e-12
6.6537486e-13
2.0465631e-12
3.5936242e-13
4.3267329e-13
9.9474778e-13
1.3625941e-12
2.5532769e-12
1.5192798e-12
1.0747342e-12
1.4959981e-12
1.2365272e-12
1.7968158e-12
1.9487463e-12
2.1728341e-12
2.392393e-12
2.6125716e-12
2.9133942e-12
3.3439993e-12
4.1531858e-12
3.9182637e-12
4.0898234e-12
4.4891227e-12
4.6730924e-12
5.2894202e-12
5.3699356e-12
5.9044198e-12
5.9848479e-12
6.2445662e-12
6.6144506e-12
6.8787922e-12
7.1899753e-12
7.5095336e-12
7.796291e-12
8.2660165e-12
8.5689942e-12
8.9070606e-12
9.2391034e-12
9.6576439e-12
1.0062621e-11
1.061913e-11
1.1115016e-11
1.1258121e-11
1.1509488e-11
1.1877156e-11
1.2203544e-11
1.2529625e-11
1.3003945e-11
1.3792229e-11
1.3868292e-11
1.3700529e-11
1.3760248e-11
1.3914804e-11
1.4059274e-11
1.4238551e-11
1.4662027e-11
1.4798406e-11
1.4747774e-11
1.4809463e-11
1.4928177e-11
1.504497e-11
1.5101712e-11
1.5252415e-11
1.5167905e-11
1.4626998e-11
1.3804384e-11
1.2758823e-11
1.1363108e-11
9.2495649e-12
-8.3365424e-11
1.1545197e-10
7.8349303e-11
8.2835464e-11
6.908369e-11
5.7985579e-11
5.030398e-11
4.0594908e-11
3.127824e-11
2.648797e-11
1.7851492e-11
1.2826172e-11
1.0892596e-11
9.3939102e-12
9.0862624e-12
5.5539311e-12
3.9326381e-12
4.0747929e-12
3.3585031e-12
3.4096677e-12
2.9219666e-12
4.0806067e-12
2.078661e-12
2.188624e-12
2.7622176e-12
3.2158931e-12
4.4480828e-12
3.1750758e-12
2.6485941e-12
3.0122048e-12
2.495794e-12
3.4284836e-12
3.635421e-12
3.8084451e-12
4.0365128e-12
4.3066844e-12
4.6551864e-12
5.1638449e-12
6.2063475e-12
5.9536547e-12
6.1506601e-12
6.5645504e-12
6.844329e-12
7.4864205e-12
7.6146444e-12
8.3230657e-12
8.4477956e-12
8.7220469e-12
9.1372137e-12
9.5015608e-12
9.8685139e-12
1.0241476e-11
1.0504725e-11
1.1191535e-11
1.1535212e-11
1.1958468e-11
1.2393627e-11
1.2894927e-11
1.3365031e-11
1.4015242e-11
1.4660715e-11
1.4910963e-11
1.5209305e-11
1.5557646e-11
1.5989879e-11
1.6486167e-11
1.7038757e-11
1.7841666e-11
1.8101334e-11
1.8180728e-11
1.8387251e-11
1.8715375e-11
1.909525e-11
1.9533456e-11
2.01191e-11
2.054259e-11
2.0863549e-11
2.1237673e-11
2.1686326e-11
2.2225818e-11
2.275888e-11
2.3324469e-11
2.3727515e-11
2.3896788e-11
2.3916337e-11
2.3818732e-11
2.3549308e-11
2.2713376e-11
-9.340078e-11
2.2342294e-10
1.2341955e-10
1.2266536e-10
1.0113712e-10
8.3299316e-11
7.081567e-11
5.6838396e-11
4.4126325e-11
3.7131288e-11
2.6157189e-11
1.9330558e-11
1.676846e-11
1.472597e-11
1.3973433e-11
9.528675e-12
7.3111337e-12
7.3315823e-12
6.3937608e-12
6.2393078e-12
5.5589366e-12
6.9272256e-12