/*--------------------------------*- C++ -*----------------------------------*\
| =========                 |                                                 |
| \\      /  F ield         | OpenFOAM: The Open Source CFD Toolbox           |
|  \\    /   O peration     | Version:  2406                                  |
|   \\  /    A nd           | Website:  www.openfoam.com                      |
|    \\/     M anipulation  |                                                 |
\*---------------------------------------------------------------------------*/
FoamFile
{
    version     2.0;
    format      ascii;
    arch        "LSB;label=32;scalar=64";
    class       volVectorField;
    location    "0";
    object      moment;
}
// * * * * * * * * * * * * * * * * * * * * * * * * * * * * * * * * * * * * * //

dimensions      [1 2 -2 0 0 0 0];

internalField   uniform (0 0 0);

boundaryField
{
    inlet
    {
        type            calculated;
        value           uniform (0 0 0);
    }
    topWall
    {
        type            symmetry;
    }
    jet
    {
        type            calculated;
        value           uniform (0 0 0);
    }
    outlet
    {
        type            calculated;
        value           uniform (0 0 0);
    }
    bottomWall
    {
        type            calculated;
        value           uniform (0 0 0);
    }
    hump
    {
        type            calculated;
        value           nonuniform List<vector> 
206
(
(0.011680003 0.0038808787 -0.010346328)
(0.010421961 0.0030821942 -0.0084011003)
(0.0088160544 0.0020924697 -0.0050748749)
(0.0069381959 0.0010872339 -0.00046923498)
(0.0056286387 0.00065072855 0.0031270798)
(0.0042907619 0.00030620122 0.0073487981)
(0.0028007525 0.00014587182 0.012294844)
(0.0014588844 0.00039372339 0.016796908)
(-0.0019987521 -0.00010381321 0.02297123)
(-0.0098525265 -0.0034584388 0.037307925)
(-0.012405786 -0.0040655988 0.049401938)
(-0.014287357 -0.0043451217 0.059799095)
(-0.016158186 -0.0045723444 0.071061966)
(-0.018036524 -0.0047274737 0.083201892)
(-0.019749263 -0.0047908826 0.095520699)
(-0.021375634 -0.0048033635 0.10834012)
(-0.022927787 -0.0047879752 0.12173381)
(-0.024501027 -0.0047595732 0.1362061)
(-0.026093407 -0.004712335 0.15178626)
(-0.027701015 -0.0046459804 0.16851165)
(-0.029336772 -0.004566828 0.1865286)
(-0.028125028 -0.0040920242 0.18600446)
(-0.025097513 -0.0033511403 0.17358484)
(-0.024527805 -0.0029762689 0.17719809)
(-0.02387669 -0.0026026256 0.17982722)
(-0.023085803 -0.0022299149 0.18106372)
(-0.02208837 -0.00182415 0.18086409)
(-0.020919671 -0.0014193481 0.17885096)
(-0.01974412 -0.0010635985 0.17538453)
(-0.018531446 -0.00075805305 0.17032603)
(-0.017396087 -0.00048374984 0.16480525)
(-0.016211552 -0.00025238435 0.15782444)
(-0.015095642 -6.6722427e-05 0.15062295)
(-0.014034861 9.2397903e-05 0.14319394)
(-0.01302084 0.00022692113 0.13552634)
(-0.012060108 0.00032785743 0.12781088)
(-0.011186727 0.00041377654 0.12049769)
(-0.010343236 0.00048791775 0.11304784)
(-0.0095439486 0.00053535744 0.10572555)
(-0.0088247212 0.00057448144 0.098953767)
(-0.0081455008 0.00061087395 0.0923287)
(-0.0074926434 0.00063375873 0.085766902)
(-0.0068831189 0.00064381882 0.079503409)
(-0.0063195562 0.00064542201 0.073597209)
(-0.0057990011 0.00064058054 0.068043188)
(-0.0053191256 0.00063071631 0.062840058)
(-0.0048776999 0.0006167805 0.057984605)
(-0.0044733202 0.00059984274 0.053479677)
(-0.0041041455 0.00058234243 0.049316256)
(-0.0037638811 0.00056512878 0.04543109)
(-0.0034476626 0.00054714801 0.041779787)
(-0.003153338 0.00052770533 0.038348284)
(-0.0028794901 0.00050548106 0.035131488)
(-0.0026248264 0.00048064557 0.032122394)
(-0.0023924861 0.00045451095 0.029363119)
(-0.0021863812 0.00042869182 0.026904052)
(-0.002001851 0.0004036827 0.024693614)
(-0.0018378445 0.00038149516 0.022718678)
(-0.0016887524 0.00036339859 0.020908365)
(-0.0015460956 0.00034733393 0.019162776)
(-0.0014105815 0.00033217509 0.017493957)
(-0.0012882564 0.00031774782 0.015980999)
(-0.001172728 0.00030298803 0.014547855)
(-0.0010536942 0.00028589587 0.013068327)
(-0.00096970103 0.00027544704 0.012021434)
(-0.00082920436 0.00024412065 0.010276884)
(-0.0010713783 0.00039930791 0.013214323)
(-0.0010162871 0.0003947745 0.012519269)
(-0.0009800564 0.0003969339 0.012056465)
(-0.00093539443 0.00039486309 0.011490741)
(-0.0008991016 0.00039695662 0.011025112)
(-0.0008664539 0.00040034821 0.010603982)
(-0.00083783539 0.00040511607 0.010232382)
(-0.00081434986 0.00041386125 0.0099207671)
(-0.00079060079 0.00042128791 0.0096078481)
(-0.00077678926 0.00043248573 0.0094177884)
(-0.00076430819 0.00044312179 0.0092467096)
(-0.00075490321 0.0004540661 0.0091161126)
(-0.00074809455 0.00046466807 0.0090211712)
(-0.00074246935 0.00047563398 0.0089418183)
(-0.0007384274 0.00048857589 0.0088817571)
(-0.00073617943 0.0004986272 0.0088502647)
(-0.00073458457 0.00050974989 0.0088257181)
(-0.00073370182 0.00052070855 0.0088115991)
(-0.00073360896 0.00053133339 0.0088093508)
(-0.00073393463 0.0005431274 0.0088119077)
(-0.00073495026 0.0005543801 0.008826555)
(-0.00073641572 0.00056498117 0.0088473759)
(-0.00073820615 0.00057554728 0.0088736559)
(-0.00074052144 0.00058544311 0.0089084452)
(-0.00074502743 0.00059686397 0.0089711318)
(-0.00074540426 0.0006043555 0.0089893701)
(-0.0007425662 0.00060899351 0.0089661947)
(-0.00075556543 0.0006241842 0.0091403967)
(-0.00076654078 0.0006386833 0.0092889299)
(-0.00076464515 0.00064083179 0.0092862484)
(-0.00077216981 0.00065024709 0.0094030637)
(-0.00077923248 0.00065887317 0.009512263)
(-0.00078456919 0.00066602686 0.0096015445)
(-0.00079148113 0.00067384875 0.0097119615)
(-0.00079897349 0.00068219617 0.009832278)
(-0.00080698946 0.00069090872 0.0099613564)
(-0.00081550927 0.00069787299 0.010098817)
(-0.00082439926 0.00070481459 0.010242542)
(-0.00083431854 0.00071065182 0.010403408)
(-0.00084095873 0.00071143421 0.010533412)
(-0.00086221954 0.00072524362 0.01084196)
(-0.00087393632 0.00073055406 0.011032863)
(-0.0008820425 0.00073442505 0.011176622)
(-0.00089522809 0.00074121715 0.011392306)
(-0.00090243925 0.00074640842 0.011525231)
(-0.00091790203 0.00075738731 0.01176489)
(-0.00092807264 0.00076431528 0.011937529)
(-0.00094484361 0.0007774516 0.012200284)
(-0.00096116236 0.00078904284 0.012459368)
(-0.00096957483 0.00079228209 0.012617693)
(-0.00098387561 0.0007993828 0.012855208)
(-0.0010003609 0.0008071399 0.01312983)
(-0.001019726 0.00081542625 0.013444613)
(-0.0010403362 0.00082319242 0.0137774)
(-0.0010526084 0.00082433192 0.014001454)
(-0.001070703 0.00082592177 0.014317322)
(-0.0010907842 0.0008310712 0.014653371)
(-0.0011146349 0.0008386476 0.015041363)
(-0.001135527 0.00084350956 0.015393404)
(-0.0011596878 0.00084964917 0.01580175)
(-0.001180911 0.00085515938 0.016161869)
(-0.001202078 0.00086007211 0.016524135)
(-0.0012256066 0.00086497511 0.01692853)
(-0.0012512323 0.00087051421 0.017366582)
(-0.0012751362 0.00087443607 0.017778066)
(-0.0013009799 0.00087747029 0.018221682)
(-0.0013297202 0.00088030202 0.018722789)
(-0.0013565096 0.00088229986 0.019188707)
(-0.0013843645 0.00088348176 0.01967316)
(-0.0014147761 0.00088422643 0.02020543)
(-0.0014467533 0.00088472741 0.020766406)
(-0.001476962 0.00088455058 0.021297413)
(-0.0015062123 0.00088331324 0.021818943)
(-0.0015432156 0.00088098896 0.022475869)
(-0.0015750128 0.00087918362 0.023043206)
(-0.0016080706 0.0008763127 0.023634048)
(-0.0016455339 0.00087142603 0.024309674)
(-0.0016810103 0.00086647882 0.024952416)
(-0.001715641 0.00086103342 0.025581605)
(-0.0017545013 0.00085414682 0.02628899)
(-0.0017950036 0.00084668106 0.027029891)
(-0.0018305553 0.00083826793 0.027688832)
(-0.0018704678 0.00082899251 0.028424325)
(-0.0019142759 0.00081844733 0.029239283)
(-0.0019557122 0.00080786988 0.030011539)
(-0.0020053091 0.00079395274 0.030945801)
(-0.0020507371 0.00078208345 0.031802441)
(-0.0020977798 0.00076965022 0.032697636)
(-0.0021444638 0.00075683261 0.033591566)
(-0.0021855301 0.00074508329 0.034386052)
(-0.002234465 0.00073038712 0.035333622)
(-0.0022776604 0.00071746731 0.036177245)
(-0.0023191358 0.00070364366 0.036992352)
(-0.0023619446 0.00069113025 0.0378369)
(-0.0024083197 0.00067774465 0.038757678)
(-0.0024478715 0.00066620215 0.039552476)
(-0.0026880165 0.00070596847 0.043616778)
(-0.002884065 0.00073406828 0.046970985)
(-0.0028796059 0.00070850686 0.047081822)
(-0.0028742329 0.00068398888 0.047174325)
(-0.0028682242 0.00066063544 0.047253082)
(-0.0028616203 0.00063835825 0.047318722)
(-0.0028541241 0.00061702092 0.047366374)
(-0.0028458686 0.00059682691 0.047398074)
(-0.0028373862 0.00057792337 0.047422733)
(-0.0028282874 0.00056055961 0.047433682)
(-0.002817165 0.0005446431 0.047407271)
(-0.0028055513 0.00052889482 0.047369504)
(-0.0027935021 0.00051366983 0.047321197)
(-0.002780708 0.00049904786 0.047257078)
(-0.0027676814 0.00048480696 0.047185858)
(-0.0027535488 0.00047147228 0.047092471)
(-0.0027388109 0.00045828665 0.046985605)
(-0.0027245408 0.00044497876 0.04688374)
(-0.0027097636 0.00043263594 0.046769919)
(-0.0026943585 0.00042129921 0.04664202)
(-0.002677024 0.00041024437 0.04647939)
(-0.0026611287 0.00039819337 0.046343579)
(-0.0026442218 0.00038856207 0.046180239)
(-0.0026258071 0.00037908316 0.045987393)
(-0.0026086 0.00036912189 0.045812744)
(-0.0025909107 0.00036018125 0.045626446)
(-0.0025713396 0.00035181329 0.045403799)
(-0.0025520687 0.00034284054 0.0451835)
(-0.0025328812 0.0003338702 0.044961603)
(-0.0025129008 0.00032526604 0.044722541)
(-0.0024926764 0.00031641168 0.044476142)
(-0.0024726581 0.00030724751 0.04423045)
(-0.0024525815 0.00029828213 0.043980735)
(-0.0024321281 0.00028947663 0.043721789)
(-0.0024094716 0.0002797137 0.043431763)
(-0.0023895446 0.00027137388 0.043175752)
(-0.0023675518 0.00026375677 0.042879426)
(-0.0023464257 0.00025528809 0.04259601)
(-0.0023249494 0.00024691176 0.042303366)
(-0.0024529785 0.00023916003 0.044985191)
(-0.0036306525 0.00023162772 0.068606451)
(-0.0035661876 0.00021752379 0.067491054)
(-0.0032368484 0.00020737288 0.0610429)
(-0.0033949893 0.00019711619 0.064347878)
)
;
    }
    defaultFaces
    {
        type            empty;
    }
}


// ************************************************************************* //
