/*--------------------------------*- C++ -*----------------------------------*\
| =========                 |                                                 |
| \\      /  F ield         | OpenFOAM: The Open Source CFD Toolbox           |
|  \\    /   O peration     | Version:  2406                                  |
|   \\  /    A nd           | Website:  www.openfoam.com                      |
|    \\/     M anipulation  |                                                 |
\*---------------------------------------------------------------------------*/
FoamFile
{
    version     2.0;
    format      ascii;
    arch        "LSB;label=32;scalar=64";
    class       volScalarField;
    location    "0";
    object      nut;
}
// * * * * * * * * * * * * * * * * * * * * * * * * * * * * * * * * * * * * * //

dimensions      [0 2 -1 0 0 0 0];

internalField   nonuniform List<scalar> 
18060
(
4.4380286e-07
2.4800402e-06
6.7255529e-06
1.3218434e-05
2.0905031e-05
3.0292868e-05
3.9813708e-05
4.8390796e-05
5.6061908e-05
6.1641786e-05
6.4792432e-05
6.6397451e-05
8.5793329e-06
5.0084865e-05
0.00010230947
0.00014768615
0.00018528597
0.00022123224
0.00025193212
0.00027668828
0.00029673409
0.00030972682
0.00031638571
0.00031948896
1.9021791e-05
0.00011529892
0.00022347032
0.0003107855
0.00038092885
0.00044506834
0.00049642922
0.00053494018
0.00056292548
0.00057772418
0.00058353674
0.00058540999
1.6987361e-05
0.00014092318
0.00030143564
0.00044046946
0.00055902105
0.00067110197
0.0007595601
0.00082182575
0.00086144384
0.00087614677
0.00087795934
0.00087626974
6.3822034e-06
0.0001244524
0.00033610558
0.00053349308
0.00070868233
0.00088189755
0.0010238391
0.0011243831
0.0011852713
0.001202231
0.0011988989
0.0011923072
6.2959667e-07
7.2340229e-05
0.00031932059
0.00058124094
0.00081884534
0.0010612104
0.0012679712
0.0014200123
0.0015148988
0.0015414716
0.0015353614
0.0015246066
8.0842735e-08
1.9331718e-05
0.00022711818
0.0005651
0.00087836032
0.0012045254
0.0014920031
0.0017121319
0.0018580149
0.0019068995
0.0019044
0.0018927898
4.8841305e-08
2.3096953e-06
9.3920186e-05
0.00046148076
0.00085789388
0.0012771479
0.0016544438
0.0019525945
0.0021614454
0.0022451412
0.0022553782
0.0022489879
2.9222048e-08
2.6476053e-07
1.0510395e-05
0.00025722517
0.00072761924
0.00126064
0.0017468324
0.0021404268
0.0024298711
0.0025649009
0.0026001635
0.0026076775
2.0738302e-08
1.1076196e-07
7.053313e-07
6.2656998e-05
0.00045172671
0.0011088115
0.0017316118
0.0022437126
0.0026357934
0.0028430176
0.0029195883
0.0029530763
1.5935603e-08
5.5286126e-08
2.4413161e-07
3.4074639e-06
0.00013382283
0.00076618138
0.001557279
0.0022212795
0.0027452231
0.0030516194
0.0031908863
0.0032665233
1.3000881e-08
3.2026643e-08
9.4583814e-08
3.600407e-07
9.6718838e-06
0.00028758413
0.0011606847
0.0020202033
0.0027172348
0.0031583209
0.0033880306
0.0035268074
1.1014962e-08
2.0324033e-08
4.2694722e-08
1.0463248e-07
2.667004e-07
2.0208436e-05
0.00055129121
0.0015779954
0.0025052035
0.003128135
0.0034834322
0.0037116705
9.4479808e-09
1.3244168e-08
1.9831885e-08
3.1298705e-08
4.9116678e-08
7.2204788e-08
6.6503235e-05
0.00077084686
0.0019686415
0.0028738605
0.0034236491
0.0037913716
8.2657258e-09
9.1193609e-09
1.0241771e-08
1.153042e-08
1.2841412e-08
1.4648063e-08
4.6356957e-07
0.00014013809
0.0010879073
0.0023326414
0.0031473483
0.0037031393
7.8516612e-09
7.8998691e-09
7.9705153e-09
8.0395545e-09
8.093703e-09
8.1438732e-09
8.1687707e-09
4.8251172e-06
0.00025458984
0.0014852602
0.0026275358
0.003430093
7.8401597e-09
7.8503368e-09
7.8635574e-09
7.8800266e-09
7.8991578e-09
7.9248237e-09
7.9567147e-09
8.0048378e-09
6.4704233e-08
0.00040503087
0.0016394592
0.0028084036
7.8397883e-09
7.8492592e-09
7.8616091e-09
7.8769001e-09
7.8944925e-09
7.9177682e-09
7.9462492e-09
7.979632e-09
8.0630822e-09
2.9122332e-05
0.00058990595
0.0018650366
7.8393848e-09
7.8481169e-09
7.8595163e-09
7.8737609e-09
7.8900097e-09
7.9114789e-09
7.9377635e-09
7.9685507e-09
8.0082215e-09
8.2787287e-09
4.3843062e-05
0.00065314034
7.8389692e-09
7.8469322e-09
7.8573166e-09
7.8703385e-09
7.8851575e-09
7.9047382e-09
7.928709e-09
7.9567957e-09
7.9929581e-09
8.0396197e-09
1.5106802e-07
3.7648279e-05
7.8385941e-09
7.8458472e-09
7.8553162e-09
7.8671879e-09
7.880704e-09
7.8985674e-09
7.9204408e-09
7.9460571e-09
7.9789545e-09
8.0214912e-09
8.0716099e-09
8.8963319e-09
7.8381797e-09
7.8446492e-09
7.8531028e-09
7.8637011e-09
7.8757733e-09
7.8917341e-09
7.9112796e-09
7.9341632e-09
7.9635783e-09
8.0015593e-09
8.0462463e-09
8.1004726e-09
7.837837e-09
7.8436556e-09
7.8512652e-09
7.860807e-09
7.8716799e-09
7.8860556e-09
7.9036619e-09
7.9242746e-09
7.9507459e-09
7.9849144e-09
8.0251008e-09
8.0742843e-09
7.8374469e-09
7.8425247e-09
7.8491713e-09
7.8575068e-09
7.867009e-09
7.8795746e-09
7.8949664e-09
7.9129836e-09
7.9361142e-09
7.9659314e-09
8.0009607e-09
8.0437649e-09
7.837142e-09
7.841641e-09
7.8475332e-09
7.8549241e-09
7.8633518e-09
7.8744977e-09
7.8881523e-09
7.9041347e-09
7.9246446e-09
7.9510665e-09
7.9820734e-09
8.0199181e-09
7.836795e-09
7.8406352e-09
7.8456672e-09
7.8519811e-09
7.8591826e-09
7.8687076e-09
7.8803782e-09
7.8940376e-09
7.91156e-09
7.9341133e-09
7.9605513e-09
7.9927749e-09
7.8365321e-09
7.8398736e-09
7.8442533e-09
7.8497504e-09
7.8560211e-09
7.8643152e-09
7.874479e-09
7.8863745e-09
7.9016301e-09
7.9212539e-09
7.9442372e-09
7.97222e-09
7.8362404e-09
7.8390288e-09
7.8426843e-09
7.8472741e-09
7.8525103e-09
7.8594361e-09
7.8679239e-09
7.877858e-09
7.8905951e-09
7.9069686e-09
7.9261265e-09
7.9494231e-09
7.8360218e-09
7.8383957e-09
7.841508e-09
7.8454171e-09
7.8498767e-09
7.8557752e-09
7.8630043e-09
7.8714653e-09
7.8823121e-09
7.8962495e-09
7.9125453e-09
7.9323424e-09
7.8357902e-09
7.8377251e-09
7.8402624e-09
7.84345e-09
7.8470866e-09
7.8518958e-09
7.8577899e-09
7.8646887e-09
7.8735315e-09
7.8848897e-09
7.89816e-09
7.9142644e-09
7.8356155e-09
7.8372195e-09
7.8393228e-09
7.841966e-09
7.8449814e-09
7.8489686e-09
7.8538547e-09
7.8595737e-09
7.8669039e-09
7.8763172e-09
7.8873093e-09
7.9006375e-09
7.835442e-09
7.8367169e-09
7.8383889e-09
7.8404906e-09
7.8428883e-09
7.8460579e-09
7.8499414e-09
7.8544868e-09
7.8603125e-09
7.8677929e-09
7.8765237e-09
7.8871003e-09
7.8353086e-09
7.8363308e-09
7.8376716e-09
7.8393572e-09
7.8412803e-09
7.8438218e-09
7.846935e-09
7.8505785e-09
7.855248e-09
7.8612442e-09
7.8682407e-09
7.8767097e-09
7.8351859e-09
7.8359757e-09
7.8370117e-09
7.8383144e-09
7.8398005e-09
7.8417643e-09
7.8441688e-09
7.8469823e-09
7.8505881e-09
7.8552191e-09
7.8606219e-09
7.8671562e-09
7.8350893e-09
7.8356959e-09
7.8364917e-09
7.8374925e-09
7.8386343e-09
7.8401429e-09
7.8419892e-09
7.8441489e-09
7.8469164e-09
7.8504721e-09
7.8546205e-09
7.8596331e-09
7.835008e-09
7.8354607e-09
7.8360544e-09
7.8368014e-09
7.8376537e-09
7.8387794e-09
7.8401567e-09
7.841767e-09
7.84383e-09
7.846482e-09
7.849577e-09
7.8533141e-09
7.8349422e-09
7.83527e-09
7.8357001e-09
7.8362412e-09
7.8368586e-09
7.8376742e-09
7.8386715e-09
7.8398369e-09
7.8413291e-09
7.8432492e-09
7.845491e-09
7.8482029e-09
7.8348921e-09
7.8351252e-09
7.8354309e-09
7.8358156e-09
7.8362546e-09
7.8368345e-09
7.8375434e-09
7.838371e-09
7.83943e-09
7.8407945e-09
7.8423889e-09
7.8443189e-09
7.8348504e-09
7.8350043e-09
7.8352062e-09
7.8354603e-09
7.8357501e-09
7.8361331e-09
7.8366013e-09
7.8371472e-09
7.8378446e-09
7.838745e-09
7.8397974e-09
7.8410717e-09
7.8348217e-09
7.8349213e-09
7.835052e-09
7.8352165e-09
7.8354041e-09
7.8356518e-09
7.8359547e-09
7.8363073e-09
7.8367563e-09
7.837338e-09
7.8380183e-09
7.8388426e-09
7.8347963e-09
7.8348477e-09
7.8349153e-09
7.8350002e-09
7.8350971e-09
7.8352251e-09
7.8353814e-09
7.8355626e-09
7.8357904e-09
7.8360876e-09
7.8364385e-09
7.836864e-09
7.8347789e-09
7.8347976e-09
7.8348228e-09
7.8348543e-09
7.83489e-09
7.8349372e-09
7.8349949e-09
7.8350616e-09
7.8351428e-09
7.835251e-09
7.8353814e-09
7.8355395e-09
6.6903712e-05
6.6906487e-05
6.6761115e-05
6.656788e-05
6.6376686e-05
6.6206626e-05
6.6063564e-05
6.5945966e-05
6.5856918e-05
6.5792112e-05
6.5746463e-05
6.5717141e-05
6.5701638e-05
6.5697472e-05
6.5702744e-05
6.571502e-05
6.5732314e-05
6.5753277e-05
6.5776529e-05
6.5800929e-05
6.5826093e-05
6.5850093e-05
6.5872125e-05
6.5892019e-05
6.590937e-05
6.5923784e-05
6.5935296e-05
6.5942659e-05
6.5946781e-05
6.5947162e-05
6.5943323e-05
6.5934462e-05
6.5920158e-05
6.590038e-05
6.5874469e-05
6.5841951e-05
6.5801598e-05
6.5751568e-05
6.5695021e-05
6.5629679e-05
6.5554931e-05
6.5470217e-05
6.5369066e-05
6.5260953e-05
6.5141253e-05
6.5009031e-05
6.4863622e-05
6.4697716e-05
6.4518899e-05
6.4327966e-05
6.412091e-05
6.3896956e-05
6.3649267e-05
6.3378308e-05
6.3096562e-05
6.279445e-05
6.2471044e-05
6.2121448e-05
6.1732791e-05
6.1336712e-05
6.0915038e-05
6.0466594e-05
5.9989975e-05
5.9452293e-05
5.8912575e-05
5.8340652e-05
5.7735031e-05
5.709414e-05
5.6377795e-05
5.565195e-05
5.4890089e-05
5.4085328e-05
5.3235516e-05
5.2290704e-05
5.1327581e-05
5.0321862e-05
4.9260295e-05
4.8139738e-05
4.6893438e-05
4.5621856e-05
4.4293574e-05
4.2889485e-05
4.1404546e-05
3.9740664e-05
3.8050641e-05
3.627225e-05
3.438398e-05
3.237926e-05
0.00032026684
0.00032009686
0.00031962139
0.00031909975
0.00031862116
0.00031821687
0.00031789394
0.00031764597
0.00031747506
0.00031736832
0.00031731284
0.00031730014
0.00031732303
0.000317375
0.00031745302
0.00031754601
0.00031765034
0.00031776282
0.00031787983
0.00031799835
0.00031811907
0.00031823446
0.00031834218
0.00031844296
0.0003185357
0.0003186195
0.00031869607
0.00031875795
0.00031881176
0.00031885633
0.0003188905
0.00031891373
0.00031892289
0.00031891759
0.00031889715
0.00031886042
0.00031880507
0.00031872721
0.00031863153
0.00031851442
0.00031837446
0.0003182103
0.00031800852
0.00031778775
0.00031753887
0.0003172598
0.00031694902
0.00031659047
0.0003162003
0.00031578043
0.00031532209
0.00031482353
0.00031426932
0.00031366028
0.00031302459
0.00031234078
0.00031160677
0.00031081142
0.00030992526
0.00030902047
0.00030805572
0.00030702833
0.00030593505
0.0003047003
0.0003034596
0.00030214372
0.00030074917
0.00029927222
0.00029762004
0.00029594454
0.00029418443
0.0002923236
0.00029035672
0.00028816751
0.00028593298
0.00028359637
0.00028112606
0.00027851373
0.0002756017
0.00027262263
0.00026950142
0.0002661907
0.0002626751
0.00025871572
0.00025466893
0.00025038008
0.0002457877
0.00024086353
0.00058530305
0.00058472529
0.00058391037
0.00058320084
0.00058262864
0.0005821945
0.00058189045
0.00058170352
0.00058162344
0.00058163008
0.00058170679
0.00058184047
0.00058202021
0.00058223683
0.00058249103
0.00058275686
0.00058303321
0.00058331644
0.00058360152
0.00058388429
0.00058416908
0.0005844403
0.00058469435
0.00058493464
0.00058515965
0.0005853683
0.00058556618
0.00058573474
0.00058589155
0.00058603511
0.00058616383
0.00058627974
0.00058637458
0.00058644725
0.00058649858
0.00058652699
0.00058653062
0.00058650511
0.0005864515
0.00058636838
0.00058625392
0.00058610634
0.00058591157
0.00058568699
0.00058542406
0.00058512033
0.00058477392
0.00058436611
0.00058391478
0.00058342259
0.00058287944
0.00058228319
0.00058161516
0.00058087599
0.00058010022
0.00057926207
0.00057835915
0.00057737792
0.00057628199
0.00057516102
0.00057396431
0.0005726889
0.00057133116
0.00056979769
0.00056825741
0.00056662491
0.00056489648
0.0005630682
0.00056102631
0.00055895963
0.00055679319
0.00055450815
0.00055209919
0.0005494261
0.00054670694
0.00054387354
0.00054088924
0.00053774606
0.00053425829
0.00053070817
0.00052700772
0.00052310373
0.00051898174
0.00051436968
0.00050968863
0.00050476186
0.00049952399
0.00049394646
0.00087435701
0.00087332871
0.00087235623
0.00087177616
0.0008714689
0.00087136112
0.00087141411
0.00087161064
0.00087191251
0.00087229611
0.00087274743
0.00087325083
0.00087379333
0.00087436482
0.00087497767
0.00087557972
0.00087617934
0.00087677455
0.00087735969
0.00087793045
0.00087849893
0.00087903682
0.00087953968
0.00088001643
0.00088046557
0.00088088619
0.00088129112
0.00088164328
0.00088197919
0.00088229722
0.00088259552
0.00088288148
0.00088313812
0.00088336323
0.00088356086
0.00088372919
0.00088386816
0.00088397406
0.00088403923
0.00088406785
0.00088405783
0.00088400713
0.00088390571
0.00088376117
0.00088356965
0.00088332878
0.00088303647
0.00088267517
0.0008822596
0.00088179297
0.00088126593
0.00088067616
0.00088000447
0.00087925058
0.00087845012
0.00087757706
0.00087662893
0.00087559136
0.00087442526
0.00087322626
0.00087194084
0.00087056596
0.00086909784
0.00086743515
0.00086576131
0.00086398419
0.00086209999
0.00086010469
0.00085787417
0.00085561504
0.00085324589
0.00085074646
0.00084811126
0.00084518734
0.00084221352
0.00083911549
0.00083585343
0.00083241873
0.00082860841
0.00082473069
0.00082068887
0.00081642371
0.00081191795
0.00080687128
0.00080173964
0.00079632414
0.00079054443
0.00078435342
0.001188315
0.0011872309
0.0011866942
0.0011869171
0.0011875494
0.0011884051
0.0011894021
0.0011905293
0.001191699
0.0011928934
0.0011941129
0.0011953438
0.001196575
0.0011977988
0.0011990521
0.0012002396
0.0012013907
0.0012025086
0.0012035887
0.0012046283
0.0012056534
0.0012066166
0.0012075135
0.0012083627
0.0012091638
0.0012099166
0.0012106457
0.0012112856
0.001211903
0.0012124961
0.0012130632
0.0012136208
0.0012141382
0.0012146119
0.0012150512
0.0012154544
0.0012158249
0.0012161609
0.00121644
0.0012166759
0.0012168667
0.0012170101
0.0012171057
0.0012171411
0.001217122
0.0012170466
0.0012169129
0.0012167088
0.00121644
0.0012161101
0.001215713
0.0012152462
0.0012146931
0.0012140515
0.0012133522
0.0012125733
0.0012117126
0.0012107563
0.0012096669
0.0012085336
0.0012073071
0.0012059843
0.0012045612
0.0012029383
0.0012012943
0.0011995398
0.0011976707
0.0011956827
0.0011934507
0.001191181
0.0011887922
0.0011862634
0.0011835885
0.0011806103
0.0011775704
0.0011743925
0.0011710343
0.0011674848
0.0011635294
0.0011594835
0.0011552436
0.0011507416
0.0011459521
0.0011405407
0.0011349794
0.0011290406
0.0011226133
0.001115609
0.001519416
0.0015192709
0.0015202407
0.0015223121
0.0015248714
0.0015276002
0.0015303683
0.001533191
0.0015359041
0.0015385105
0.0015410413
0.001543492
0.0015458588
0.0015481413
0.0015504183
0.0015525289
0.0015545393
0.0015564629
0.0015582987
0.0015600477
0.0015617583
0.0015633555
0.0015648362
0.0015662349
0.0015675529
0.001568792
0.0015699945
0.001571054
0.0015720812
0.0015730749
0.0015740336
0.0015749871
0.0015758855
0.0015767229
0.0015775174
0.0015782671
0.0015789811
0.0015796608
0.0015802618
0.0015808123
0.0015813105
0.0015817543
0.0015821588
0.0015824801
0.0015827392
0.0015829353
0.0015830664
0.00158313
0.0015831174
0.0015830322
0.0015828735
0.001582639
0.0015823172
0.0015819028
0.0015814164
0.0015808445
0.0015801845
0.0015794249
0.0015785324
0.0015775801
0.001576528
0.0015753726
0.00157411
0.0015726484
0.0015711478
0.0015695281
0.0015677843
0.0015659115
0.0015637879
0.001561608
0.0015592943
0.0015568246
0.0015541908
0.0015512332
0.0015481877
0.0015449762
0.0015415529
0.0015379012
0.0015337894
0.0015295365
0.001525028
0.0015201812
0.0015149562
0.0015089601
0.0015026888
0.0014958695
0.001488343
0.0014799565
0.0018889187
0.0018917379
0.00189615
0.0019018592
0.0019079955
0.0019141055
0.0019200136
0.0019258004
0.0019311813
0.0019362042
0.0019409578
0.001945457
0.0019497148
0.0019537455
0.0019576988
0.0019613089
0.001964705
0.0019679193
0.0019709584
0.0019738303
0.0019766196
0.0019792095
0.0019816003
0.0019838517
0.0019859692
0.0019879582
0.0019898882
0.0019915909
0.0019932452
0.0019948504
0.0019964059
0.0019979622
0.0019994399
0.0020008302
0.0020021639
0.00200344
0.0020046759
0.0020058779
0.0020069686
0.0020079983
0.0020089655
0.0020098682
0.0020107455
0.0020115057
0.0020121927
0.0020128075
0.0020133484
0.0020138278
0.002014214
0.002014511
0.002014726
0.0020148569
0.0020148998
0.0020148447
0.0020146961
0.0020144531
0.0020141128
0.0020136665
0.0020130877
0.0020124231
0.0020116474
0.0020107566
0.0020097457
0.0020085344
0.0020072536
0.0020058366
0.0020042769
0.0020025673
0.0020005897
0.001998521
0.0019962884
0.001993867
0.0019912447
0.0019882531
0.0019851228
0.001981772
0.001978147
0.0019742216
0.0019697292
0.0019650047
0.0019599134
0.0019543484
0.0019482478
0.0019411158
0.0019335107
0.0019250892
0.0019156226
0.0019048739
0.0022505149
0.0022589125
0.0022689781
0.002280211
0.0022915901
0.0023025725
0.0023129592
0.0023229442
0.0023320832
0.0023404956
0.0023483529
0.0023557006
0.0023625773
0.0023690193
0.0023752749
0.0023809359
0.0023862202
0.0023911865
0.0023958533
0.0024002389
0.0024044775
0.0024083963
0.0024120019
0.0024153882
0.0024185669
0.0024215487
0.0024244397
0.0024269898
0.0024294685
0.0024318761
0.0024342134
0.0024365576
0.0024387908
0.0024409007
0.0024429353
0.0024448943
0.0024468061
0.0024486837
0.0024504065
0.0024520539
0.0024536245
0.0024551167
0.0024566
0.0024579217
0.0024591552
0.0024603036
0.0024613655
0.0024623721
0.0024632625
0.0024640411
0.0024647254
0.002465313
0.00246581
0.0024661995
0.0024664662
0.0024666246
0.0024666713
0.0024666005
0.002466393
0.002466064
0.0024656055
0.0024650119
0.0024642767
0.002463331
0.0024622733
0.0024610512
0.0024596555
0.0024580758
0.0024561925
0.002454169
0.0024519344
0.002449459
0.0024467257
0.0024435467
0.0024401573
0.002436468
0.0024324135
0.0024279544
0.0024227711
0.0024172366
0.0024111869
0.002404485
0.0023970449
0.002388231
0.0023787141
0.0023680643
0.002355975
0.0023421271
0.0026205775
0.0026383479
0.0026571773
0.002676551
0.0026954646
0.0027133623
0.0027300605
0.0027459369
0.0027603346
0.0027734793
0.002785662
0.0027969716
0.0028074843
0.002817268
0.002826708
0.0028351998
0.0028430853
0.0028504606
0.0028573612
0.0028638204
0.0028700404
0.0028757727
0.0028810325
0.0028859616
0.0028905804
0.0028949068
0.0028990971
0.0029027909
0.0029063805
0.0029098677
0.0029132548
0.0029166554
0.0029198994
0.0029229702
0.0029259387
0.002928806
0.0029316154
0.002934388
0.0029369465
0.0029394084
0.0029417729
0.0029440386
0.0029463147
0.0029483684
0.0029503123
0.0029521519
0.0029538862
0.0029555704
0.002957106
0.0029584976
0.002959776
0.0029609384
0.0029620028
0.0029629436
0.0029637207
0.0029643678
0.0029648805
0.0029652561
0.002965483
0.0029655391
0.0029654367
0.002965168
0.0029647244
0.0029640462
0.0029631986
0.0029621435
0.0029608679
0.0029593569
0.0029574829
0.0029554023
0.0029530425
0.0029503675
0.0029473535
0.0029437804
0.0029399026
0.0029356192
0.0029308481
0.0029255343
0.0029192849
0.0029125397
0.002905094
0.0028967781
0.0028874807
0.0028763861
0.0028643393
0.0028508073
0.0028353945
0.0028177126
0.002985598
0.0030178059
0.0030493211
0.0030800319
0.0031092137
0.0031364273
0.0031615724
0.003185305
0.0032066976
0.0032261274
0.0032440478
0.0032606069
0.0032759323
0.0032901356
0.0033037827
0.0033160107
0.0033273255
0.0033378733
0.0033477129
0.0033568973
0.0033657182
0.0033738281
0.0033812543
0.0033882015
0.0033947015
0.0034007828
0.0034066662
0.0034118486
0.0034168825
0.0034217716
0.0034265203
0.0034312889
0.0034358395
0.0034401503
0.0034443221
0.0034483582
0.0034523206
0.0034562406
0.0034598684
0.0034633702
0.0034667458
0.0034699943
0.0034732749
0.0034762535
0.0034790919
0.0034817994
0.003484375
0.0034869038
0.0034892398
0.0034913886
0.0034933971
0.0034952621
0.0034970157
0.0034986214
0.0035000092
0.003501236
0.0035022959
0.0035031898
0.0035039138
0.003504403
0.0035046928
0.0035047729
0.0035046315
0.0035042169
0.00350356
0.003502637
0.0035014304
0.0034999194
0.0034979623
0.0034957164
0.0034931036
0.00349008
0.0034866159
0.0034824446
0.003477856
0.0034727359
0.0034669795
0.0034605152
0.0034528638
0.0034445548
0.003435335
0.0034250064
0.0034134294
0.0033995759
0.0033845292
0.0033676374
0.0033484023
0.0033264083
0.0033296535
0.0033828917
0.0034319266
0.003477805
0.0035204496
0.0035597324
0.0035957455
0.0036295437
0.0036598726
0.0036873174
0.0037125454
0.0037357833
0.0037572264
0.0037770435
0.003796031
0.003812998
0.0038286595
0.0038432257
0.0038567853
0.0038694172
0.003881526
0.003892639
0.0039027997
0.003912292
0.0039211628
0.0039294538
0.0039374677
0.0039445215
0.0039513696
0.0039580182
0.0039644748
0.0039709575
0.003977143
0.003983003
0.003988677
0.0039941708
0.0039995699
0.004004918
0.0040098743
0.0040146666
0.0040192947
0.0040237585
0.0040282788
0.0040323963
0.0040363344
0.0040401064
0.0040437119
0.0040472718
0.0040505825
0.0040536505
0.0040565427
0.0040592552
0.004061837
0.0040642384
0.0040663539
0.0040682681
0.0040699736
0.004071475
0.004072777
0.0040737653
0.0040745026
0.0040749752
0.0040751678
0.0040750366
0.0040745754
0.004073776
0.0040726155
0.0040710666
0.0040689704
0.0040664898
0.0040635379
0.0040600645
0.0040560343
0.0040511217
0.0040456677
0.0040395452
0.0040326166
0.0040247988
0.0040155254
0.0040054167
0.0039941766
0.003981594
0.0039674788
0.0039505807
0.0039322894
0.0039117938
0.0038884879
0.0038620264
0.0036349385
0.003717511
0.0037899467
0.0038555337
0.0039153344
0.0039698071
0.0040193946
0.0040657003
0.0041070938
0.0041444387
0.0041786779
0.0042101401
0.0042391079
0.0042658242
0.0042913694
0.0043141513
0.0043351428
0.0043546333
0.0043727486
0.0043896006
0.004405732
0.0044205171
0.0044340194
0.0044466204
0.0044583853
0.0044693722
0.004479984
0.0044893186
0.0044983768
0.0045071682
0.0045157039
0.0045242716
0.0045324433
0.0045401842
0.0045476812
0.0045549438
0.0045620857
0.0045691649
0.0045757307
0.0045820848
0.0045882279
0.0045941601
0.004600177
0.0046056684
0.004610932
0.0046159866
0.004620832
0.0046256326
0.0046301151
0.0046342874
0.0046382403
0.0046419695
0.0046455446
0.0046489
0.0046518878
0.0046546261
0.0046571058
0.0046593364
0.0046613329
0.0046629225
0.0046642006
0.0046651494
0.0046657509
0.0046659721
0.0046657602
0.0046651283
0.0046640466
0.0046624807
0.0046602586
0.004657544
0.0046542404
0.0046502982
0.0046456735
0.0046399713
0.0046336028
0.0046264239
0.0046182475
0.0046090028
0.0045980423
0.0045860337
0.0045726914
0.0045578062
0.004541055
0.0045210416
0.004499517
0.0044753724
0.0044479921
0.0044171941
0.0038829374
0.0040049505
0.0041077905
0.00419837
0.0042795297
0.0043526792
0.0044188193
0.0044802882
0.0045350394
0.0045843009
0.0046293636
0.0046706871
0.0047086644
0.0047436319
0.0047770123
0.0048067357
0.0048340846
0.0048594449
0.0048829869
0.0049048632
0.0049257815
0.0049449341
0.004962409
0.0049787041
0.0049939066
0.0050080947
0.00502179
0.0050338308
0.0050455106
0.0050568439
0.0050678456
0.0050788845
0.0050894083
0.0050993755
0.005109031
0.0051183886
0.005127595
0.005136725
0.0051451973
0.005153401
0.0051613378
0.0051690085
0.0051767972
0.0051839156
0.00519075
0.0051973252
0.0052036417
0.0052099153
0.0052157903
0.0052212764
0.005226493
0.0052314353
0.0052361983
0.0052406977
0.0052447352
0.0052484689
0.0052518882
0.0052550086
0.0052578591
0.0052601958
0.0052621542
0.0052637118
0.0052648494
0.0052655503
0.0052656991
0.0052653402
0.0052644333
0.0052629391
0.0052606844
0.0052578116
0.0052542235
0.0052498861
0.0052447264
0.0052382817
0.0052310656
0.0052228809
0.005213481
0.0052028742
0.0051903047
0.0051763926
0.0051610403
0.0051439904
0.0051245905
0.005101641
0.0050771519
0.0050498016
0.0050189553
0.0049843987
0.0040601352
0.0042409315
0.0043876756
0.0045134754
0.00462416
0.0047227672
0.0048112482
0.0048930366
0.004965593
0.0050306786
0.0050900731
0.005144424
0.0051942804
0.0052401107
0.0052837925
0.0053226314
0.0053583203
0.0053913741
0.0054220236
0.0054504757
0.0054776556
0.0055025181
0.0055251839
0.005546304
0.0055659946
0.0055843605
0.0056020791
0.0056176501
0.0056327496
0.0056473996
0.0056616193
0.0056758793
0.0056894659
0.0057023331
0.0057148029
0.0057268948
0.0057387972
0.0057506062
0.0057615695
0.005772191
0.0057824734
0.0057924185
0.0058025271
0.0058117787
0.0058206757
0.0058292513
0.0058375064
0.0058457252
0.0058534435
0.0058606727
0.005867571
0.0058741338
0.0058804903
0.0058865326
0.0058919938
0.0058970864
0.0059017982
0.0059061533
0.0059102024
0.005913604
0.0059165469
0.0059190043
0.0059209608
0.0059224218
0.0059231783
0.0059233277
0.0059228042
0.0059215813
0.0059195064
0.0059166245
0.0059128992
0.005908334
0.0059027182
0.0058956192
0.0058877071
0.0058785108
0.0058678934
0.0058560612
0.0058420575
0.0058265027
0.0058094992
0.0057907101
0.0057697357
0.0057448759
0.0057182924
0.0056888616
0.0056558313
0.0056186816
0.0041019203
0.0043590034
0.0045611707
0.0047304156
0.0048768318
0.0050057993
0.0051206362
0.005226202
0.0053194657
0.0054028726
0.0054788045
0.0055481456
0.0056116395
0.0056699175
0.0057253849
0.0057746376
0.005819843
0.005861667
0.0059004114
0.0059363469
0.0059706481
0.0060020005
0.0060305635
0.0060571624
0.0060819476
0.0061050547
0.006127338
0.0061469135
0.0061658934
0.0061843099
0.0062021829
0.0062200927
0.0062371471
0.0062533024
0.0062689692
0.0062841711
0.0062991423
0.0063140021
0.0063278041
0.0063411823
0.0063541409
0.0063666835
0.0063794455
0.0063911427
0.0064024104
0.0064132905
0.0064237842
0.0064342552
0.0064441142
0.0064533745
0.00646224
0.0064707072
0.0064789463
0.006486823
0.0064939874
0.0065007172
0.0065069986
0.0065128642
0.0065183983
0.0065231389
0.0065273312
0.0065309553
0.0065340065
0.0065364932
0.0065381182
0.0065390244
0.0065391084
0.0065384257
0.0065368134
0.0065340884
0.0065305149
0.0065260674
0.0065202876
0.0065130276
0.0065049544
0.006495707
0.0064850449
0.0064730558
0.0064588957
0.0064434398
0.0064263274
0.0064072683
0.0063860335
0.0063608304
0.0063337158
0.0063035906
0.0062697631
0.0062316239
0.0039972381
0.0043512647
0.0046224334
0.0048447622
0.0050341434
0.0051991486
0.0053449604
0.0054782559
0.0055955262
0.0057000811
0.0057950373
0.0058815755
0.0059606793
0.0060331793
0.0061020908
0.0061632061
0.0062192395
0.0062710324
0.0063189713
0.0063634
0.0064057785
0.006444488
0.0064797331
0.0065125379
0.006543092
0.0065715667
0.0065990171
0.0066231251
0.0066465008
0.0066691884
0.0066911987
0.0067132293
0.006734201
0.0067540808
0.0067733771
0.0067921136
0.0068105735
0.0068289032
0.0068459356
0.006862453
0.0068784608
0.0068939657
0.00690976
0.0069242601
0.0069382515
0.0069517845
0.0069648603
0.0069779362
0.006990277
0.0070018989
0.0070130604
0.0070237599
0.0070342152
0.0070442627
0.0070534504
0.0070621369
0.0070703017
0.0070779867
0.0070853328
0.0070917139
0.0070974373
0.0071025281
0.0071069711
0.007110726
0.0071135167
0.0071153871
0.0071163117
0.0071165127
0.007115828
0.0071139721
0.0071112516
0.0071076565
0.0071030285
0.0070969249
0.0070898622
0.0070817
0.0070722214
0.007061334
0.0070482368
0.0070338379
0.0070177355
0.0069995938
0.0069791996
0.0069548339
0.0069284333
0.0068989141
0.0068656134
0.006827923
0.0036370855
0.0041386619
0.0045128492
0.0048129275
0.0050641968
0.00528039
0.0054697058
0.0056415964
0.0057920424
0.0059256697
0.0060466702
0.0061566702
0.0062570125
0.0063488197
0.0064359459
0.0065131052
0.0065837629
0.0066490049
0.0067093367
0.0067652036
0.0068184509
0.0068670542
0.0069112804
0.006952423
0.0069907257
0.0070264083
0.0070607969
0.0070909904
0.0071202841
0.0071487257
0.0071762795
0.0072038079
0.0072300297
0.0072549286
0.0072791283
0.0073026395
0.0073258108
0.0073488279
0.0073702269
0.0073909879
0.0074111201
0.0074306378
0.0074505547
0.007468881
0.0074865978
0.0075037639
0.0075203837
0.0075370431
0.0075528033
0.0075676895
0.0075820406
0.0075958508
0.0076094077
0.0076225026
0.0076345328
0.0076459893
0.0076568005
0.0076670556
0.0076770214
0.007685679
0.0076935663
0.007700843
0.0077074052
0.0077132584
0.0077180911
0.007722204
0.007725475
0.0077279587
0.0077297111
0.0077304574
0.0077302783
0.0077291765
0.0077271145
0.0077237903
0.007719381
0.0077138208
0.0077069808
0.0076987469
0.0076884101
0.0076766525
0.0076631648
0.0076476299
0.0076298233
0.0076081799
0.0075843852
0.007557461
0.0075267807
0.0074917609
0.0030103306
0.0036938834
0.0041921272
0.0045840393
0.0049072737
0.0051821909
0.0054208519
0.0056361011
0.0058235308
0.0059893838
0.0061391167
0.0062749
0.0063985122
0.0065114206
0.0066184075
0.0067130255
0.0067995733
0.0068794109
0.0069531784
0.0070214351
0.0070864443
0.007145746
0.0071996785
0.0072498285
0.0072964997
0.0073399658
0.0073818465
0.0074186138
0.0074543488
0.0074890223
0.0075224786
0.0075558818
0.0075877903
0.0076181669
0.0076477108
0.0076764115
0.0077046985
0.0077328077
0.0077589487
0.0077843135
0.0078089243
0.0078328121
0.0078572528
0.0078797897
0.0079016012
0.0079227598
0.0079432858
0.0079638914
0.0079834158
0.0080019178
0.0080198166
0.0080370803
0.0080541047
0.0080705628
0.0080857445
0.0081003168
0.008114054
0.0081272579
0.0081402928
0.008151961
0.0081628892
0.0081731909
0.0081828778
0.0081923179
0.0082004544
0.0082078955
0.0082146037
0.0082205485
0.0082259399
0.0082302199
0.008233613
0.0082361151
0.0082376847
0.0082382323
0.0082376028
0.0082358163
0.0082327905
0.0082284222
0.0082222037
0.0082144645
0.0082050071
0.0081935723
0.0081799432
0.0081628051
0.0081434277
0.0081210177
0.0080950139
0.0080648714
0.0019875896
0.0029265017
0.0035923564
0.004105217
0.0045219096
0.0048722265
0.0051736378
0.0054435487
0.0056772824
0.005883275
0.0060686299
0.0062362624
0.0063885417
0.0065273818
0.0066587172
0.0067746975
0.0068806622
0.0069783158
0.0070684676
0.0071518193
0.0072311452
0.0073034586
0.0073691901
0.0074302858
0.0074871242
0.0075400456
0.0075910277
0.0076358174
0.0076795307
0.0077217287
0.0077620281
0.0078025772
0.0078414975
0.0078786611
0.0079147437
0.0079497692
0.0079842909
0.0080186113
0.0080505143
0.0080814639
0.0081115277
0.0081407733
0.0081708364
0.0081985597
0.0082253874
0.0082514409
0.0082767817
0.0083021804
0.0083263073
0.0083492909
0.0083715437
0.0083930179
0.008414355
0.0084351173
0.0084544296
0.0084731384
0.0084911909
0.0085087486
0.0085262576
0.0085423023
0.0085577366
0.0085725571
0.0085867559
0.0086010575
0.0086138351
0.0086259489
0.0086373823
0.0086481004
0.0086585715
0.0086677721
0.008676137
0.008683698
0.0086904126
0.0086964612
0.008701226
0.0087048697
0.0087073757
0.0087086518
0.0087084965
0.0087067321
0.0087033204
0.008698086
0.0086908276
0.0086806263
0.0086681121
0.0086527708
0.0086341433
0.008611744
0.00061265897
0.0016537902
0.0025580113
0.0032419797
0.003784702
0.0042346702
0.0046180642
0.0049586033
0.00525175
0.0055089407
0.0057394618
0.0059473254
0.0061357142
0.0063071116
0.0064689193
0.0066115783
0.0067417617
0.0068616119
0.0069721503
0.007074259
0.007171354
0.007259801
0.0073401547
0.0074148112