/*--------------------------------*- C++ -*----------------------------------*\
| =========                 |                                                 |
| \\      /  F ield         | OpenFOAM: The Open Source CFD Toolbox           |
|  \\    /   O peration     | Version:  2406                                  |
|   \\  /    A nd           | Website:  www.openfoam.com                      |
|    \\/     M anipulation  |                                                 |
\*---------------------------------------------------------------------------*/
FoamFile
{
    version     2.0;
    format      ascii;
    arch        "LSB;label=32;scalar=64";
    class       volScalarField;
    location    "0";
    object      nuTilda;
}
// * * * * * * * * * * * * * * * * * * * * * * * * * * * * * * * * * * * * * //

dimensions      [0 2 -1 0 0 0 0];

internalField   nonuniform List<scalar> 
18060
(
1.9468815e-05
3.0766694e-05
4.1970368e-05
5.2455569e-05
6.2104597e-05
7.2230954e-05
8.1587269e-05
8.9629892e-05
9.6638749e-05
0.000101669
0.0001044934
0.00010592968
5.1745028e-05
0.00010247044
0.00014513546
0.00018139715
0.00021250828
0.00024330918
0.00027042654
0.00029274358
0.00031107208
0.00032305781
0.00032922503
0.00033210241
6.3706866e-05
0.00015529458
0.00024403608
0.00032324777
0.00038966935
0.00045163971
0.00050178599
0.00053957545
0.00056711438
0.00058169626
0.00058742399
0.00058926807
5.6710729e-05
0.00017594499
0.00031445637
0.00044706534
0.00056316976
0.00067399868
0.00076183719
0.00082377412
0.000863217
0.000877859
0.0008796623
0.0008779777
3.9324066e-05
0.00016133253
0.00034717871
0.00053810332
0.00071127746
0.00088356673
0.0010250823
0.0011254138
0.001186199
0.0012031327
0.0011998051
0.0011932229
2.3088682e-05
0.00011500431
0.00033220559
0.00058524264
0.00082080236
0.0010623598
0.0012687772
0.0014206532
0.0015154614
0.0015420151
0.0015359093
0.0015251622
1.6497946e-05
5.7409607e-05
0.00025147579
0.00056967371
0.00088009016
0.0012054196
0.0014925854
0.0017125717
0.0018583874
0.0019072533
0.0019047549
0.0018931492
1.4826247e-05
3.0418668e-05
0.00013331945
0.00047001274
0.00085978533
0.001277949
0.0016549191
0.0019529327
0.0021617203
0.002245396
0.002255631
0.0022492422
1.3392211e-05
2.2375315e-05
5.0783561e-05
0.00028149184
0.00073070158
0.0012614782
0.0017472623
0.0021407087
0.0024300882
0.0025650957
0.0026003533
0.0026078663
1.2473353e-05
1.8453678e-05
2.9596203e-05
0.00010312463
0.00046467607
0.0011099739
0.0017320593
0.0022439703
0.0026359778
0.0028431759
0.0029197385
0.0029532233
1.1789762e-05
1.5848134e-05
2.289433e-05
3.7780686e-05
0.00016884759
0.00077008661
0.0015578811
0.0022215464
0.0027453933
0.0030517568
0.0031910119
0.0032666432
1.127044e-05
1.3996944e-05
1.8299127e-05
2.5146572e-05
4.4503818e-05
0.0003139094
0.0011628492
0.0020205431
0.0027174097
0.0031584493
0.0033881419
0.0035269101
1.085277e-05
1.2595849e-05
1.5132821e-05
1.8733712e-05
2.3429752e-05
5.1863499e-05
0.00056369483
0.0015787049
0.0025054132
0.0031282666
0.0034835375
0.0037117632
1.0467157e-05
1.1367951e-05
1.2545517e-05
1.3966627e-05
1.5489601e-05
1.7019367e-05
9.2929701e-05
0.00078040634
0.0019690168
0.0028740196
0.0034237588
0.0037914604
1.0131837e-05
1.0371528e-05
1.0650163e-05
1.0921902e-05
1.1155917e-05
1.1419473e-05
1.3658132e-05
0.00016863556
0.0010936047
0.0023329189
0.003147481
0.0037032328
1.0005383e-05
1.0020656e-05
1.0042789e-05
1.0064105e-05
1.0080656e-05
1.0095899e-05
1.0103489e-05
1.7033799e-05
0.00027317921
0.001487077
0.0026277412
0.003430203
1.0001721e-05
1.0004967e-05
1.0009179e-05
1.0014418e-05
1.0020494e-05
1.0028628e-05
1.0038707e-05
1.0053815e-05
1.387179e-05
0.00041894167
0.0016406834
0.0028085759
1.0001602e-05
1.0004623e-05
1.0008558e-05
1.0013424e-05
1.0019013e-05
1.0026394e-05
1.0035403e-05
1.0045932e-05
1.0071877e-05
4.8218222e-05
0.00060342721
0.0018657452
1.0001473e-05
1.0004259e-05
1.0007892e-05
1.0012426e-05
1.001759e-05
1.0024401e-05
1.0032721e-05
1.004244e-05
1.0054923e-05
1.0135509e-05
6.7324915e-05
0.00066631987
1.0001341e-05
1.0003881e-05
1.0007191e-05
1.0011337e-05
1.0016049e-05
1.0022264e-05
1.0029857e-05
1.0038733e-05
1.0050126e-05
1.0064768e-05
1.1106409e-05
6.5713804e-05
1.0001221e-05
1.0003535e-05
1.0006554e-05
1.0010334e-05
1.0014633e-05
1.0020307e-05
1.002724e-05
1.0035342e-05
1.0045719e-05
1.0059087e-05
1.0074769e-05
1.0302178e-05
1.0001088e-05
1.0003153e-05
1.0005848e-05
1.0009225e-05
1.0013066e-05
1.0018138e-05
1.0024338e-05
1.0031583e-05
1.0040873e-05
1.0052829e-05
1.0066841e-05
1.0083769e-05
1.000098e-05
1.0002836e-05
1.0005263e-05
1.0008303e-05
1.0011764e-05
1.0016334e-05
1.0021923e-05
1.0028455e-05
1.0036824e-05
1.0047595e-05
1.0060218e-05
1.0075606e-05
1.0000855e-05
1.0002475e-05
1.0004595e-05
1.0007251e-05
1.0010277e-05
1.0014274e-05
1.0019164e-05
1.0024878e-05
1.00322e-05
1.0041615e-05
1.0052641e-05
1.0066067e-05
1.0000758e-05
1.0002193e-05
1.0004073e-05
1.0006429e-05
1.0009113e-05
1.001266e-05
1.0017e-05
1.0022073e-05
1.0028572e-05
1.0036925e-05
1.00467e-05
1.0058594e-05
1.0000647e-05
1.0001872e-05
1.0003478e-05
1.000549e-05
1.0007786e-05
1.0010818e-05
1.001453e-05
1.0018869e-05
1.0024428e-05
1.0031567e-05
1.0039918e-05
1.0050068e-05
1.0000563e-05
1.000163e-05
1.0003027e-05
1.0004779e-05
1.0006778e-05
1.000942e-05
1.0012654e-05
1.0016435e-05
1.0021279e-05
1.0027498e-05
1.0034768e-05
1.0043598e-05
1.000047e-05
1.000136e-05
1.0002526e-05
1.000399e-05
1.0005659e-05
1.0007866e-05
1.0010568e-05
1.0013729e-05
1.0017776e-05
1.0022972e-05
1.002904e-05
1.0036406e-05
1.00004e-05
1.0001158e-05
1.0002151e-05
1.0003398e-05
1.000482e-05
1.00067e-05
1.0009003e-05
1.0011695e-05
1.0015145e-05
1.0019571e-05
1.0024739e-05
1.0031007e-05
1.0000326e-05
1.0000943e-05
1.0001753e-05
1.000277e-05
1.000393e-05
1.0005464e-05
1.0007342e-05
1.0009539e-05
1.0012353e-05
1.0015964e-05
1.0020177e-05
1.0025284e-05
1.000027e-05
1.0000782e-05
1.0001454e-05
1.0002297e-05
1.0003259e-05
1.000453e-05
1.0006088e-05
1.000791e-05
1.0010244e-05
1.0013239e-05
1.0016732e-05
1.0020964e-05
1.0000215e-05
1.0000622e-05
1.0001156e-05
1.0001826e-05
1.0002591e-05
1.0003602e-05
1.0004841e-05
1.0006289e-05
1.0008145e-05
1.0010527e-05
1.0013304e-05
1.0016666e-05
1.0000172e-05
1.0000499e-05
1.0000927e-05
1.0001465e-05
1.0002078e-05
1.0002889e-05
1.0003882e-05
1.0005044e-05
1.0006532e-05
1.0008442e-05
1.0010669e-05
1.0013364e-05
1.0000133e-05
1.0000385e-05
1.0000716e-05
1.0001132e-05
1.0001606e-05
1.0002232e-05
1.0003e-05
1.0003897e-05
1.0005047e-05
1.0006523e-05
1.0008244e-05
1.0010324e-05
1.0000102e-05
1.0000296e-05
1.000055e-05
1.0000869e-05
1.0001234e-05
1.0001715e-05
1.0002304e-05
1.0002993e-05
1.0003876e-05
1.000501e-05
1.0006332e-05
1.0007929e-05
1.0000076e-05
1.0000221e-05
1.0000411e-05
1.0000649e-05
1.0000921e-05
1.000128e-05
1.000172e-05
1.0002233e-05
1.0002892e-05
1.0003738e-05
1.0004724e-05
1.0005916e-05
1.0000055e-05
1.000016e-05
1.0000297e-05
1.000047e-05
1.0000667e-05
1.0000927e-05
1.0001246e-05
1.0001618e-05
1.0002094e-05
1.0002706e-05
1.0003421e-05
1.0004287e-05
1.0000039e-05
1.0000113e-05
1.0000211e-05
1.0000334e-05
1.0000474e-05
1.0000659e-05
1.0000886e-05
1.000115e-05
1.0001488e-05
1.0001923e-05
1.0002432e-05
1.0003048e-05
1.0000026e-05
1.0000075e-05
1.0000139e-05
1.000022e-05
1.0000313e-05
1.0000436e-05
1.0000585e-05
1.0000759e-05
1.0000982e-05
1.0001269e-05
1.0001605e-05
1.0002012e-05
1.0000017e-05
1.0000049e-05
1.000009e-05
1.0000143e-05
1.0000202e-05
1.0000282e-05
1.0000379e-05
1.0000491e-05
1.0000634e-05
1.000082e-05
1.0001037e-05
1.00013e-05
1.0000009e-05
1.0000025e-05
1.0000047e-05
1.0000074e-05
1.0000105e-05
1.0000146e-05
1.0000195e-05
1.0000253e-05
1.0000326e-05
1.0000421e-05
1.0000533e-05
1.0000669e-05
1.0000003e-05
1.0000009e-05
1.0000017e-05
1.0000027e-05
1.0000038e-05
1.0000054e-05
1.0000072e-05
1.0000093e-05
1.0000119e-05
1.0000154e-05
1.0000196e-05
1.0000246e-05
0.00010638436
0.00010638912
0.00010626184
0.00010609107
0.00010592147
0.00010577018
0.00010564253
0.00010553721
0.00010545707
0.00010539835
0.00010535653
0.00010532916
0.00010531402
0.00010530893
0.00010531214
0.00010532162
0.00010533559
0.00010535282
0.00010537211
0.00010539243
0.00010541342
0.00010543342
0.00010545173
0.00010546817
0.00010548238
0.00010549401
0.00010550304
0.0001055085
0.00010551105
0.00010551027
0.00010550571
0.00010549664
0.00010548274
0.00010546396
0.00010543971
0.00010540956
0.00010537241
0.00010532657
0.00010527495
0.00010521547
0.00010514757
0.00010507075
0.00010497916
0.00010488137
0.0001047732
0.00010465379
0.00010452253
0.00010437283
0.00010421151
0.00010403929
0.00010385252
0.0001036505
0.00010342703
0.0001031825
0.00010292815
0.00010265529
0.00010236306
0.00010204697
0.00010169532
0.00010133665
0.00010095448
0.00010054766
0.00010011481
9.9625897e-05
9.9134443e-05
9.8612906e-05
9.8059764e-05
9.747339e-05
9.6816645e-05
9.614968e-05
9.544796e-05
9.4704813e-05
9.3917839e-05
9.3039982e-05
9.2141745e-05
9.1200063e-05
9.0201767e-05
8.9142905e-05
8.7958462e-05
8.674201e-05
8.5462302e-05
8.4098859e-05
8.2643984e-05
8.099589e-05
7.930025e-05
7.7490509e-05
7.5537177e-05
7.342236e-05
0.00033282088
0.00033265979
0.00033221467
0.00033172762
0.00033128137
0.00033090478
0.00033060427
0.00033037382
0.00033021528
0.00033011659
0.00033006569
0.00033005468
0.00033007685
0.0003301261
0.00033019966
0.00033028714
0.00033038517
0.00033049078
0.00033060061
0.00033071183
0.0003308251
0.00033093337
0.00033103446
0.00033112907
0.00033121616
0.0003312949
0.00033136689
0.00033142513
0.00033147586
0.00033151796
0.00033155036
0.00033157258
0.00033158166
0.00033157726
0.00033155874
0.00033152502
0.00033147395
0.00033140192
0.00033131325
0.00033120461
0.00033107468
0.0003309222
0.00033073472
0.00033052953
0.00033029819
0.00033003875
0.00032974983
0.0003294165
0.0003290538
0.00032866353
0.00032823757
0.0003277743
0.00032725944
0.00032669379
0.00032610355
0.00032546885
0.00032478778
0.0003240501
0.00032322855
0.00032239016
0.00032149666
0.00032054566
0.00031953429
0.00031839282
0.00031724671
0.00031603207
0.00031474583
0.00031338478
0.00031186375
0.00031032291
0.00030870602
0.00030699857
0.00030519606
0.00030319262
0.00030115086
0.00029901919
0.00029676932
0.00029439438
0.0002917524
0.00028905572
0.00028623695
0.00028325446
0.00028009589
0.00027654972
0.00027293779
0.0002691235
0.00026505508
0.00026071111
0.00058916043
0.00058858971
0.00058778532
0.00058708527
0.00058652089
0.00058609282
0.00058579314
0.00058560904
0.00058553037
0.00058553724
0.00058561325
0.00058574546
0.00058592311
0.00058613714
0.00058638825
0.00058665082
0.00058692375
0.00058720349
0.00058748503
0.00058776429
0.00058804555
0.00058831341
0.00058856431
0.00058880164
0.00058902387
0.00058922996
0.00058942542
0.00058959192
0.00058974683
0.00058988866
0.00059001584
0.00059013039
0.00059022414
0.000590296
0.0005903468
0.00059037499
0.0005903787
0.00059035367
0.0005903009
0.000590219
0.00059010617
0.00058996066
0.00058976857
0.00058954707
0.00058928773
0.00058898812
0.0005886464
0.00058824411
0.00058779889
0.00058731335
0.00058677755
0.00058618939
0.00058553044
0.00058480133
0.00058403616
0.0005832095
0.000582319
0.00058135133
0.00058027063
0.00057916531
0.0005779854
0.00057672802
0.00057538958
0.00057387808
0.00057236005
0.00057075131
0.00056904827
0.00056724708
0.00056523577
0.00056320039
0.00056106711
0.00055881747
0.0005564463
0.00055381574
0.00055114048
0.00054835353
0.00054541892
0.00054232896
0.00053890136
0.00053541372
0.00053177973
0.00052794734
0.00052390267
0.00051937935
0.00051479086
0.00050996424
0.00050483597
0.00049937881
0.00087607182
0.00087504751
0.00087407897
0.0008735014
0.00087319559
0.00087308847
0.00087314146
0.00087333743
0.0008736383
0.00087402056
0.00087447026
0.00087497183
0.00087551233
0.0008760817
0.00087669227
0.00087729208
0.00087788945
0.00087848243
0.00087906539
0.00087963401
0.00088020037
0.00088073626
0.00088123725
0.00088171222
0.00088215969
0.00088257876
0.00088298218
0.00088333304
0.00088366773
0.00088398459
0.0008842818
0.00088456673
0.00088482245
0.00088504675
0.00088524367
0.00088541141
0.00088554991
0.00088565545
0.00088572044
0.000885749
0.00088573907
0.00088568863
0.00088558767
0.00088544373
0.000885253
0.00088501312
0.00088472199
0.00088436215
0.00088394825
0.00088348349
0.00088295854
0.00088237113
0.00088170212
0.00088095124
0.00088015397
0.00087928441
0.00087834008
0.00087730669
0.00087614529
0.00087495115
0.00087367094
0.00087230168
0.00087083958
0.00086918373
0.00086751683
0.00086574711
0.00086387081
0.00086188393
0.00085966289
0.00085741345
0.00085505454
0.000852566
0.00084994239
0.00084703145
0.00084407099
0.00084098702
0.00083773995
0.00083432121
0.00083052883
0.00082666963
0.0008226474
0.00081840324
0.00081392
0.00080889901
0.000803794
0.00079840714
0.00079265861
0.00078650175
0.0011892369
0.0011881545
0.0011876188
0.0011878414
0.0011884729
0.0011893274
0.001190323
0.0011914486
0.0011926167
0.0011938094
0.001195027
0.0011962562
0.0011974856
0.0011987076
0.001199959
0.0012011448
0.0012022942
0.0012034105
0.0012044891
0.0012055271
0.0012065507
0.0012075125
0.0012084081
0.0012092562
0.001210056
0.0012108077
0.0012115358
0.0012121748
0.0012127913
0.0012133836
0.0012139499
0.0012145067
0.0012150234
0.0012154963
0.0012159351
0.0012163377
0.0012167077
0.0012170432
0.0012173219
0.0012175576
0.0012177481
0.0012178913
0.0012179868
0.0012180222
0.0012180031
0.0012179279
0.0012177944
0.0012175906
0.0012173222
0.0012169929
0.0012165964
0.0012161303
0.0012155781
0.0012149374
0.0012142391
0.0012134615
0.0012126021
0.0012116473
0.0012105594
0.001209428
0.0012082033
0.0012068825
0.0012054617
0.0012038412
0.0012021998
0.001200448
0.0011985818
0.0011965969
0.0011943684
0.0011921022
0.0011897173
0.0011871926
0.0011845219
0.0011815485
0.0011785137
0.001175341
0.0011719884
0.0011684449
0.001164496
0.0011604571
0.0011562245
0.0011517303
0.0011469493
0.0011415475
0.0011359963
0.0011300684
0.0011236531
0.001116662
0.0015199754
0.0015198305
0.0015207998
0.0015228697
0.0015254272
0.0015281542
0.0015309203
0.0015337411
0.0015364523
0.0015390569
0.0015415859
0.0015440349
0.0015464001
0.001548681
0.0015509565
0.0015530657
0.0015550747
0.001556997
0.0015588316
0.0015605794
0.0015622888
0.001563885
0.0015653647
0.0015667624
0.0015680796
0.0015693179
0.0015705196
0.0015715784
0.001572605
0.001573598
0.001574556
0.0015755089
0.0015764067
0.0015772436
0.0015780376
0.0015787868
0.0015795004
0.0015801796
0.0015807802
0.0015813304
0.0015818283
0.0015822718
0.001582676
0.0015829971
0.0015832561
0.001583452
0.0015835831
0.0015836467
0.0015836341
0.0015835489
0.0015833903
0.0015831561
0.0015828345
0.0015824203
0.0015819342
0.0015813628
0.0015807033
0.0015799442
0.0015790522
0.0015781006
0.0015770492
0.0015758946
0.0015746329
0.0015731722
0.0015716727
0.0015700541
0.0015683115
0.00156644
0.0015643179
0.0015621395
0.0015598273
0.0015573594
0.0015547274
0.0015517719
0.0015487285
0.0015455193
0.0015420985
0.0015384494
0.0015343406
0.0015300908
0.0015255856
0.0015207425
0.0015155214
0.0015095298
0.0015032632
0.0014964492
0.0014889287
0.0014805488
0.0018892796
0.0018920978
0.0018965084
0.0019022154
0.0019083495
0.0019144574
0.0019203633
0.0019261481
0.001931527
0.0019365483
0.0019413001
0.0019457978
0.0019500542
0.0019540835
0.0019580355
0.0019616444
0.0019650393
0.0019682526
0.0019712906
0.0019741615
0.00197695
0.001979539
0.001981929
0.0019841797
0.0019862965
0.0019882848
0.0019902143
0.0019919164
0.0019935701
0.0019951748
0.0019967298
0.0019982857
0.0019997628
0.0020011527
0.002002486
0.0020037617
0.0020049972
0.0020061988
0.0020072891
0.0020083186
0.0020092854
0.0020101879
0.0020110648
0.0020118248
0.0020125116
0.0020131263
0.002013667
0.0020141462
0.0020145323
0.0020148292
0.0020150442
0.002015175
0.0020152179
0.0020151629
0.0020150143
0.0020147714
0.0020144312
0.0020139851
0.0020134064
0.0020127421
0.0020119667
0.0020110761
0.0020100655
0.0020088547
0.0020075743
0.0020061577
0.0020045985
0.0020028895
0.0020009125
0.0019988446
0.0019966127
0.0019941921
0.0019915706
0.0019885801
0.0019854508
0.0019821011
0.0019784774
0.0019745532
0.0019700623
0.0019653394
0.0019602499
0.0019546869
0.0019485884
0.0019414588
0.0019338564
0.001925438
0.0019159749
0.0019052302
0.0022507689
0.0022591648
0.0022692282
0.0022804587
0.0022918354
0.0023028155
0.0023132001
0.002323183
0.0023323202
0.0023407309
0.0023485867
0.002355933
0.0023628084
0.0023692492
0.0023755036
0.0023811635
0.0023864468
0.0023914122
0.002396078
0.0024004628
0.0024047006
0.0024086188
0.0024122237
0.0024156094
0.0024187876
0.0024217688
0.0024246593
0.0024272089
0.0024296872
0.0024320944
0.0024344312
0.002436775
0.0024390078
0.0024411174
0.0024431516
0.0024451102
0.0024470217
0.0024488989
0.0024506215
0.0024522686
0.002453839
0.0024553309
0.002456814
0.0024581354
0.0024593687
0.0024605169
0.0024615786
0.002462585
0.0024634753
0.0024642538
0.002464938
0.0024655255
0.0024660224
0.0024664118
0.0024666785
0.0024668369
0.0024668836
0.0024668128
0.0024666054
0.0024662764
0.0024658179
0.0024652245
0.0024644895
0.0024635439
0.0024624864
0.0024612644
0.002459869
0.0024582896
0.0024564067
0.0024543835
0.0024521493
0.0024496744
0.0024469415
0.002443763
0.0024403742
0.0024366856
0.0024326318
0.0024281736
0.0024229912
0.0024174578
0.0024114092
0.0024047085
0.0023972698
0.0023884575
0.0023789425
0.0023682947
0.0023562077
0.0023423626
0.0026207645
0.0026385325
0.0026573593
0.0026767304
0.0026956415
0.0027135369
0.002730233
0.0027461075
0.0027605035
0.0027736466
0.0027858279
0.0027971362
0.0028076476
0.0028174302
0.0028268691
0.00283536
0.0028432446
0.0028506191
0.002857519
0.0028639774
0.0028701967
0.0028759284
0.0028811876
0.0028861163
0.0028907345
0.0028950606
0.0028992504
0.0029029438
0.002906533
0.0029100199
0.0029134066
0.0029168069
0.0029200505
0.002923121
0.0029260892
0.0029289562
0.0029317654
0.0029345376
0.0029370959
0.0029395576
0.0029419218
0.0029441873
0.0029464631
0.0029485167
0.0029504604
0.0029522998
0.0029540339
0.0029557179
0.0029572533
0.0029586448
0.0029599231
0.0029610854
0.0029621497
0.0029630904
0.0029638675
0.0029645145
0.0029650271
0.0029654027
0.0029656296
0.0029656857
0.0029655833
0.0029653147
0.0029648711
0.002964193
0.0029633454
0.0029622904
0.002961015
0.002959504
0.0029576303
0.0029555499
0.0029531904
0.0029505156
0.002947502
0.0029439292
0.0029400518
0.0029357688
0.0029309982
0.002925685
0.0029194362
0.0029126917
0.0029052468
0.0028969317
0.0028876353
0.0028765419
0.0028644965
0.0028509659
0.0028355548
0.002817875
0.0029857418
0.0030179468
0.0030494591
0.0030801672
0.0031093465
0.0031365578
0.0031617008
0.0031854316
0.0032068225
0.0032262508
0.0032441699
0.0032607278
0.0032760521
0.0032902543
0.0033039005
0.0033161276
0.0033274416
0.0033379887
0.0033478276
0.0033570114
0.0033658317
0.003373941
0.0033813668
0.0033883135
0.0033948131
0.003400894
0.0034067771
0.0034119592
0.0034169927
0.0034218814
0.0034266299
0.0034313982
0.0034359485
0.003440259
0.0034444305
0.0034484664
0.0034524285
0.0034563483
0.0034599758
0.0034634775
0.0034668529
0.0034701012
0.0034733816
0.00347636
0.0034791983
0.0034819055
0.003484481
0.0034870096
0.0034893455
0.0034914941
0.0034935026
0.0034953675
0.0034971209
0.0034987265
0.0035001143
0.003501341
0.0035024009
0.0035032947
0.0035040186
0.0035045078
0.0035047976
0.0035048777
0.0035047363
0.0035043217
0.0035036648
0.003502742
0.0035015354
0.0035000245
0.0034980675
0.0034958217
0.0034932091
0.0034901856
0.0034867218
0.0034825507
0.0034779625
0.0034728426
0.0034670866
0.0034606227
0.0034529718
0.0034446633
0.003435444
0.0034251161
0.0034135398
0.0033996873
0.0033846415
0.0033677508
0.0033485171
0.0033265246
0.0033297689
0.0033830036
0.0034320354
0.003477911
0.0035205531
0.0035598336
0.0035958447
0.0036296411
0.0036599683
0.0036874118
0.0037126385
0.0037358753
0.0037573173
0.0037771336
0.0037961201
0.0038130863
0.0038287471
0.0038433127
0.0038568716
0.0038695029
0.0038816113
0.0038927238
0.003902884
0.003912376
0.0039212464
0.003929537
0.0039375505
0.0039446041
0.0039514518
0.0039581002
0.0039645566
0.003971039
0.0039772242
0.0039830839
0.0039887577
0.0039942514
0.0039996503
0.0040049981
0.0040099543
0.0040147463
0.0040193743
0.0040238378
0.004028358
0.0040324753
0.0040364133
0.0040401852
0.0040437905
0.0040473503
0.0040506609
0.0040537288
0.0040566208
0.0040593332
0.0040619149
0.0040643163
0.0040664317
0.0040683458
0.0040700512
0.0040715526
0.0040728545
0.0040738428
0.0040745801
0.0040750526
0.0040752452
0.0040751141
0.0040746529
0.0040738535
0.0040726931
0.0040711442
0.0040690481
0.0040665676
0.0040636158
0.0040601425
0.0040561125
0.0040512
0.0040457463
0.0040396239
0.0040326957
0.0040248781
0.0040156052
0.0040054969
0.0039942571
0.0039816751
0.0039675605
0.0039506631
0.0039323725
0.0039118778
0.0038885729
0.0038621126
0.0036350352
0.0037176036
0.0037900358
0.0038556198
0.0039154179
0.0039698884
0.0040194738
0.0040657778
0.0041071698
0.0041445133
0.0041787512
0.0042102124
0.0042391792
0.0042658947
0.004291439
0.0043142202
0.004335211
0.004354701
0.0043728157
0.0043896671
0.0044057981
0.0044205827
0.0044340847
0.0044466853
0.0044584498
0.0044694364
0.0044800479
0.0044893823
0.0044984402
0.0045072314
0.0045157669
0.0045243342
0.0045325058
0.0045402465
0.0045477433
0.0045550057
0.0045621473
0.0045692264
0.004575792
0.004582146
0.0045882889
0.0045942209
0.0046002377
0.0046057289
0.0046109924
0.0046160468
0.0046208921
0.0046256926
0.0046301749
0.0046343471
0.0046383
0.0046420291
0.0046456041
0.0046489594
0.0046519471
0.0046546854
0.004657165
0.0046593955
0.004661392
0.0046629815
0.0046642596
0.0046652084
0.0046658099
0.0046660311
0.0046658192
0.0046651873
0.0046641056
0.0046625398
0.0046603178
0.0046576032
0.0046542997
0.0046503576
0.0046457329
0.0046400309
0.0046336626
0.0046264838
0.0046183077
0.0046090632
0.0045981031
0.0045860947
0.0045727528
0.004557868
0.0045411172
0.0045211045
0.0044995804
0.0044754365
0.004448057
0.0044172598
0.0038830221
0.0040050301
0.0041078662
0.0041984425
0.0042795995
0.0043527466
0.0044188847
0.0044803519
0.0045351015
0.0045843618
0.0046294233
0.0046707457
0.004708722
0.0047436887
0.0047770684
0.0048067911
0.0048341393
0.004859499
0.0048830406
0.0049049164
0.0049258342
0.0049449865
0.004962461
0.0049787558
0.0049939579
0.0050081457
0.0050218407
0.0050338813
0.0050455609
0.005056894
0.0050678955
0.0050789341
0.0050894576
0.0050994247
0.00510908
0.0051184374
0.0051276437
0.0051367735
0.0051452456
0.0051534492
0.0051613858
0.0051690564
0.005176845
0.0051839632
0.0051907975
0.0051973725
0.005203689
0.0052099625
0.0052158374
0.0052213233
0.0052265398
0.0052314821
0.005236245
0.0052407444
0.0052447817
0.0052485154
0.0052519346
0.005255055
0.0052579054
0.005260242
0.0052622004
0.005263758
0.0052648956
0.0052655965
0.0052657453
0.0052653864
0.0052644795
0.0052629853
0.0052607307
0.0052578579
0.0052542699
0.0052499326
0.005244773
0.0052383284
0.0052311124
0.0052229278
0.0052135281
0.0052029215
0.0051903523
0.0051764404
0.0051610884
0.0051440388
0.0051246393
0.0051016902
0.0050772015
0.0050498518
0.0050190062
0.0049844502
0.0040602126
0.0042410024
0.0043877419
0.0045135381
0.0046242197
0.0047228245
0.0048113033
0.00489309
0.0049656448
0.0050307291
0.0050901224
0.0051444723
0.0051943277
0.0052401572
0.0052838383
0.0053226765
0.0053583648
0.0053914181
0.0054220671
0.0054505187
0.0054776982
0.0055025603
0.0055252258
0.0055463455
0.0055660358
0.0055844015
0.0056021199
0.0056176906
0.0056327899
0.0056474397
0.0056616591
0.005675919
0.0056895054
0.0057023725
0.0057148421
0.0057269338
0.005738836
0.0057506448
0.005761608
0.0057722294
0.0057825116
0.0057924567
0.0058025652
0.0058118166
0.0058207134
0.005829289
0.005837544
0.0058457626
0.0058534808
0.00586071
0.0058676081
0.0058741708
0.0058805273
0.0058865695
0.0058920306
0.0058971232
0.005901835
0.0059061899
0.005910239
0.0059136406
0.0059165835
0.0059190408
0.0059209973
0.0059224582
0.0059232148
0.0059233641
0.0059228407
0.0059216178
0.0059195428
0.005916661
0.0059129357
0.0059083706
0.0059027549
0.005895656
0.005887744
0.0058785478
0.0058679306
0.0058560985
0.005842095
0.0058265404
0.0058095371
0.0057907482
0.0057697741
0.0057449146
0.0057183315
0.0056889011
0.0056558713
0.0056187221
0.0041019962
0.0043590705
0.0045612321
0.0047304727
0.0048768855
0.0050058503
0.0051206849
0.0052262487
0.0053195109
0.0054029164
0.005478847
0.0055481871
0.00561168
0.0056699572
0.0057254239
0.0057746759
0.0058198807
0.0058617042
0.0059004482
0.0059363832
0.005970684
0.006002036
0.0060305986
0.0060571972
0.0060819822
0.006105089
0.0061273721
0.0061469473
0.006165927
0.0061843433
0.0062022161
0.0062201258
0.00623718
0.0062533352
0.0062690017
0.0062842035
0.0062991745
0.0063140342
0.006327836
0.0063412142
0.0063541726
0.0063667151
0.006379477
0.006391174
0.0064024416
0.0064133216
0.0064238152
0.0064342862
0.006444145
0.0064534052
0.0064622706
0.0064707378
0.0064789768
0.0064868534
0.0064940177
0.0065007475
0.0065070288
0.0065128944
0.0065184285
0.006523169
0.0065273613
0.0065309853
0.0065340365
0.0065365231
0.0065381482
0.0065390543
0.0065391383
0.0065384556
0.0065368434
0.0065341184
0.0065305449
0.0065260974
0.0065203177
0.0065130578
0.0065049846
0.0064957373
0.0064850754
0.0064730864
0.0064589264
0.0064434706
0.0064263584
0.0064072995
0.0063860649
0.006360862
0.0063337477
0.0063036228
0.0062697957
0.0062316569
0.0039973182
0.0043513322
0.0046224932
0.0048448165
0.0050341938
0.0051991959
0.005345005
0.0054782985
0.005595567
0.0057001204
0.0057950754
0.0058816124
0.0059607152
0.0060332144
0.0061021251
0.0061632397
0.0062192725
0.0062710649
0.0063190033
0.0063634316
0.0064058096
0.0064445188
0.0064797635
0.006512568
0.0065431219
0.0065715962
0.0065990464
0.0066231542
0.0066465297
0.0066692171
0.0066912272
0.0067132576
0.0067342292
0.0067541088
0.006773405
0.0067921413
0.0068106011
0.0068289306
0.0068459629
0.0068624801
0.0068784878
0.0068939926
0.0069097868
0.0069242867
0.006938278
0.0069518109
0.0069648866
0.0069779624
0.0069903031
0.0070019249
0.0070130864
0.0070237858
0.0070342411
0.0070442884
0.007053476
0.0070621625
0.0070703273
0.0070780122
0.0070853583
0.0070917393
0.0070974626
0.0071025534
0.0071069964
0.0071107513
0.0071135419
0.0071154123
0.007116337
0.0071165379
0.0071158532
0.0071139974
0.0071112769
0.0071076818
0.0071030538
0.0070969502
0.0070898876
0.0070817254
0.007072247
0.0070613596
0.0070482625
0.0070338637
0.0070177615
0.0069996199
0.0069792259
0.0069548604
0.00692846
0.006898941
0.0068656406
0.0068279504
0.003637183
0.0041387368
0.004512912
0.0048129826
0.0050642465
0.0052804357
0.0054697484
0.0056416365
0.0057920804
0.005925706
0.0060467051
0.0061567039
0.0062570451
0.0063488514
0.0064359767
0.0065131353
0.0065837924
0.0066490338
0.006709365
0.0067652314
0.0068184784
0.0068670813
0.0069113071
0.0069524494
0.0069907518
0.0070264342
0.0070608225
0.0070910158
0.0071203093
0.0071487507
0.0071763043
0.0072038325
0.0072300542
0.0072549529
0.0072791524
0.0073026635
0.0073258346
0.0073488516
0.0073702504
0.0073910113
0.0074111433
0.007430661
0.0074505777
0.0074689039
0.0074866206
0.0075037865
0.0075204062
0.0075370656
0.0075528257
0.0075677118
0.0075820628
0.007595873
0.0076094298
0.0076225246
0.0076345547
0.0076460112
0.0076568223
0.0076670774
0.0076770431
0.0076857007
0.0076935878
0.0077008646
0.0077074267
0.0077132798
0.0077181126
0.0077222254
0.0077254964
0.0077279801
0.0077297325
0.0077304787
0.0077302997
0.0077291979
0.0077271359
0.0077238117
0.0077194024
0.0077138422
0.0077070023
0.0076987684
0.0076884318
0.0076766742
0.0076631865
0.0076476517
0.0076298453
0.007608202
0.0075844074
0.0075574833
0.0075268033
0.0074917837
0.0030104795
0.0036939789
0.0041922005
0.0045841003
0.0049073268
0.0051822385
0.0054208953
0.0056361413
0.0058235684
0.0059894193
0.0061391506
0.0062749324
0.0063985433
0.0065114506
0.0066184366
0.0067130538
0.0067996009
0.0068794378
0.0069532048
0.007021461
0.0070864697
0.007145771
0.0071997032
0.0072498528
0.0072965237
0.0073399895
0.0073818698
0.007418637
0.0074543717
0.0074890451
0.0075225012
0.0075559041
0.0075878125
0.0076181888
0.0076477326
0.0076764331
0.00770472
0.0077328291
0.0077589699
0.0077843345
0.0078089452
0.0078328329
0.0078572735
0.0078798102
0.0079016216
0.0079227801
0.0079433061
0.0079639115
0.0079834359
0.0080019377
0.0080198364
0.0080371001
0.0080541244
0.0080705824
0.0080857641
0.0081003362
0.0081140734
0.0081272772
0.0081403121
0.0081519802
0.0081629084
0.0081732101
0.0081828969
0.0081923369
0.0082004734
0.0082079145
0.0082146226
0.0082205674
0.0082259588
0.0082302388
0.0082336318
0.008236134
0.0082377035
0.0082382511
0.0082376216
0.0082358351
0.0082328093
0.0082284411
0.0082222226
0.0082144834
0.0082050261
0.0081935914
0.0081799623
0.0081628243
0.0081434469
0.0081210371
0.0080950334
0.0080648911
0.0019879899
0.0029266601
0.0035924577
0.0041052937
0.0045219724
0.0048722804
0.0051736856
0.0054435918
0.005677322
0.0058833119
0.0060686645
0.0062362952
0.0063885729
0.0065274117
0.0066587459
0.0067747253
0.0068806891
0.0069783419
0.0070684932
0.0071518442
0.0072311696
0.0073034825
0.0073692136
0.0074303089
0.007487147
0.0075400681
0.0075910499
0.0076358393
0.0076795523
0.00772175
0.0077620493
0.0078025981
0.0078415183
0.0078786817
0.0079147641
0.0079497894
0.0079843109
0.0080186311
0.008050534
0.0080814834
0.0081115471
0.0081407926
0.0081708555
0.0081985787
0.0082254062
0.0082514597
0.0082768003
0.0083021989
0.0083263257
0.0083493092
0.0083715619
0.008393036
0.008414373
0.0084351353
0.0084544475
0.0084731562
0.0084912087
0.0085087662
0.0085262752
0.0085423198
0.008557754
0.0085725745
0.0085867732
0.0086010747
0.0086138523
0.0086259661
0.0086373994
0.0086481174
0.0086585885
0.0086677891
0.0086761539
0.0086837149
0.0086904294
0.008696478
0.0087012428
0.0087048865
0.0087073925
0.0087086686
0.0087085134
0.0087067489
0.0087033373
0.0086981028
0.0086908445
0.0086806432
0.0086681291
0.0086527879
0.0086341604
0.0086117612
0.00062416778
0.0016552708
0.0025582472
0.0032421094
0.003784794
0.0042347426
0.0046181247
0.0049586556
0.0052517966
0.0055089829
0.0057395006
0.0059473615
0.0061357481
0.0063071437
0.0064689497
0.0066116075
0.0067417898
0.006861639
0.0069721766
0.0070742844
0.0071713788
0.0072598252
0.0073401783