/*--------------------------------*- C++ -*----------------------------------*\
| =========                 |                                                 |
| \\      /  F ield         | OpenFOAM: The Open Source CFD Toolbox           |
|  \\    /   O peration     | Version:  2406                                  |
|   \\  /    A nd           | Website:  www.openfoam.com                      |
|    \\/     M anipulation  |                                                 |
\*---------------------------------------------------------------------------*/
FoamFile
{
    version     2.0;
    format      ascii;
    arch        "LSB;label=32;scalar=64";
    class       volScalarField;
    location    "0";
    object      pWall;
}
// * * * * * * * * * * * * * * * * * * * * * * * * * * * * * * * * * * * * * //

dimensions      [0 2 -2 0 0 0 0];

internalField   nonuniform List<scalar> 
18060
(
21.69917
23.552865
26.619936
29.261778
31.23899
32.818483
33.843091
34.399776
34.478316
34.02821
33.355323
32.623567
21.699234
23.549201
26.612646
29.253363
31.230416
32.810483
33.836213
34.394288
34.474498
34.026047
33.354283
32.623186
21.702444
23.547559
26.603962
29.242513
31.219097
32.799844
33.827112
34.387103
34.469561
34.023281
33.352963
32.622702
21.710409
23.554076
26.600346
29.234328
31.208643
32.788624
33.816744
34.378567
34.463567
34.019898
33.351347
32.622109
21.721877
23.569155
26.603639
29.230242
31.200644
32.778385
33.806256
34.369339
34.456785
34.015978
33.349454
32.621414
21.735695
23.590253
26.616765
29.232022
31.196545
32.770504
33.796914
34.360388
34.449765
34.011751
33.347375
32.620649
21.753763
23.615079
26.643068
29.243867
31.198516
32.766092
33.789267
34.35195
34.442512
34.007123
33.345033
32.619788
21.781452
23.635048
26.672116
29.26905
31.209322
32.76745
33.785345
34.345768
34.436323
34.002852
33.342797
32.618974
21.824354
23.659489
26.691449
29.303912
31.233604
32.776702
33.786156
34.342221
34.431245
33.998903
33.340645
32.618217
21.888872
23.695316
26.699424
29.330192
31.270541
32.797535
33.793662
34.342582
34.427941
33.995611
33.338755
32.617645
21.982128
23.747662
26.708255
29.334367
31.29947
32.832204
33.809769
34.347818
34.427085
33.993299
33.337342
32.617186
22.110982
23.821142
26.722686
29.327507
31.301393
32.861956
33.836453
34.35882
34.428069
33.992305
33.336503
32.616739
22.279004
23.920375
26.744337
29.318318
31.284715
32.86148
33.860065
34.375926
34.430746
33.992047
33.33597
32.616831
22.510573
24.060763
26.780865
29.30892
31.257835
32.83337
33.853926
34.384758
34.435095
33.992022
33.335853
32.617396
22.778508
24.223566
26.828367
29.303265
31.226462
32.797939
33.825018
34.364794
34.429664
33.991024
33.335813
32.618157
23.068918
24.408573
26.880524
29.297141
31.193839
32.759498
33.78831
34.334312
34.410528
33.985388
33.335138
32.618889
23.425401
24.640134
26.952391
29.292527
31.155069
32.710782
33.74173
34.293815
34.380648
33.970539
33.331318
32.619278
23.772532
24.873201
27.032535
29.291335
31.117862
32.662062
33.694214
34.252374
34.349548
33.952599
33.323774
32.617937
24.154982
25.137988
27.131411
29.294139
31.077771
32.606828
33.639534
34.204269
34.313357
33.931313
33.313513
32.614242
24.575679
25.439754
27.254261
29.303897
31.035328
32.544159
33.576093
34.147868
34.270591
33.905901
33.300729
32.608981
24.982139
25.740716
27.385908
29.320882
30.996386
32.481892
33.511597
34.089931
34.226356
33.879334
33.28715
32.603346
25.46277
26.108867
27.560452
29.352656
30.954088
32.406179
33.430712
34.016223
34.169488
33.844814
33.269449
32.595969
25.88807
26.44455
27.731696
29.392034
30.92084
32.337683
33.354991
33.946161
34.114896
33.811277
33.252047
32.588647
26.407958
26.867293
27.964436
29.457436
30.887529
32.252558
33.256617
33.853338
34.041585
33.765636
33.228085
32.578395
26.84354
27.230908
28.179018
29.528122
30.867199
32.18077
33.169291
33.769119
33.974099
33.722981
33.205414
32.568547
27.37682
27.687116
28.467089
29.63769
30.854719
32.093628
33.056011
33.656834
33.88248
33.664049
33.173608
32.554486
27.810948
28.066558
28.721694
29.747151
30.856708
32.024597
32.958808
33.55742
33.7997
33.609768
33.143832
32.541078
28.329608
28.528691
29.049645
29.904907
30.87729
31.946802
32.837065
33.427979
33.689208
33.535661
33.102384
32.522022
28.748027
28.907777
29.332169
30.054763
30.910827
31.889828
32.735061
33.314549
33.589629
33.46721
33.063286
32.50365
29.225383
29.346641
29.673793
30.252786
30.971867
31.834745
32.615684
33.174204
33.462152
33.377015
33.010483
32.478219
29.612553
29.707042
29.964901
30.434887
31.041418
31.800508
32.517907
33.051593
33.34644
33.29254
32.959698
32.453127
30.026572
30.096617
30.289885
30.652483
31.139527
31.778582
32.41459
32.911142
33.207629
33.187411
32.894507
32.41997
30.36736
30.420153
30.567047
30.848892
31.239966
31.774564
32.332578
32.788654
33.080237
33.087054
32.830192
32.386264
30.70318
30.741435
30.848682
31.058676
31.359119
31.787094
32.257347
32.661994
32.940243
32.97158
32.753314
32.344587
30.984828
31.012557
31.090766
31.246423
31.474845
31.812104
32.200708
32.55209
32.810539
32.859287
32.675528
32.300938
31.236202
31.255823
31.311446
31.423663
31.591949
31.848521
32.157871
32.451863
32.6829
32.742495
32.590892
32.251603
31.450367
31.463939
31.502586
31.581453
31.701949
31.890965
32.128694
32.365806
32.564308
32.627668
32.503801
32.198946
31.61981
31.629175
31.655935
31.711029
31.796433
31.933496
32.112096
32.297921
32.462282
32.522614
32.420239
32.146397
31.76402
31.770175
31.787822
31.824443
31.881956
31.976211
32.103174
32.240715
32.368811
32.420563
32.335429
32.090699
31.860966
31.865166
31.877239
31.902428
31.942348
32.008776
32.100464
32.20274
32.301412
32.342699
32.267808
32.044299
31.936991
31.939761
31.947755
31.964521
31.991315
32.03651
32.10035
32.173313
32.245328
32.274737
32.20667
32.000796
31.970874
31.973035
31.9793
31.992482
32.013643
32.049601
32.101009
32.160441
32.219562
32.24121
32.176148
31.978492
31.92635
31.388365
30.915977
30.48594
30.090634
29.724708
29.385668
29.061031
28.766286
28.494217
28.242116
28.009251
27.793876
27.596273
27.411037
27.251265
27.110862
26.988632
26.8855
26.801981
26.73719
26.695014
26.674591
26.674727
26.69519
26.735788
26.799749
26.879705
26.981582
27.107082
27.257933
27.443386
27.658008
27.900097
28.175594
28.486596
28.84129
29.249325
29.685027
30.165554
30.69334
31.27085
31.938225
32.631158
33.379898
34.189091
35.061448
36.038071
37.072062
38.158746
39.32027
40.559561
41.912216
43.372732
44.872938
46.463516
48.147666
49.948567
51.928347
53.923992
56.026836
58.240288
60.568806
63.16679
65.745609
68.449378
71.281634
74.245944
77.519656
80.795466
84.192162
87.735561
91.429217
95.477703
99.542834
103.72467
108.071
112.58522
117.51625
122.45056
127.50551
132.74099
138.15964
144.08329
149.94008
155.93626
162.11881
168.48424
31.926287
31.388419
30.916096
30.486096
30.09081
29.724896
29.385865
29.061234
28.766494
28.494429
28.24233
28.009468
27.794095
27.596492
27.411257
27.251483
27.111078
26.988844
26.885706
26.802177
26.737376
26.695186
26.674746
26.674863
26.695303
26.735876
26.799806
26.87973
26.981568
27.107026
27.257828
27.443225
27.657782
27.899802
28.17522
28.486134
28.840728
29.248649
29.684231
30.164625
30.692263
31.269612
31.936799
32.629536
33.378064
34.187024
35.059129
36.035466
37.069152
38.155511
39.316684
40.555598
41.907834
43.367892
44.867622
46.457689
48.14129
49.941597
51.920712
53.915678
56.017797
58.230474
60.558165
63.155213
65.733089
68.435853
71.267044
74.230222
77.502665
80.777189
84.172532
87.714502
91.406649
95.453461
99.516889
103.69695
108.04143
112.5537
117.48259
122.41474
127.46745
132.70063
138.1169
144.03796
149.89222
155.88588
162.0659
168.42871
31.926204
31.38848
30.916238
30.486282
30.091021
29.725123
29.386102
29.061478
28.766744
28.494683
28.242588
28.009728
27.794357
27.596755
27.411519
27.251744
27.111336
26.989096
26.885951
26.802414
26.737599
26.695393
26.674934
26.675029
26.695443
26.735986
26.799881
26.879767
26.981563
27.106971
27.257718
27.443048
27.657533
27.899471
28.174799
28.485611
28.840092
29.247883
29.683325
30.163565
30.691035
31.268197
31.935169
32.627681
33.375963
34.184657
35.056471
36.03248
37.065815
38.151801
39.312571
40.551049
41.902805
43.362337
44.86152
46.450999
48.133969
49.933591
51.911944
53.906129
56.007414
58.2192
60.545942
63.141914
65.718706
68.420319
71.250285
74.212166
77.483155
80.756204
84.149997
87.69033
91.380751
95.425648
99.487131
103.66517
108.00753
112.51759
117.44404
122.37373
127.42394
132.65451
138.06809
143.98625
149.83771
155.82858
162.00581
168.36572
31.926101
31.388549
30.916407
30.486505
30.091273
29.725393
29.386384
29.061768
28.767041
28.494985
28.242893
28.010037
27.794668
27.597067
27.41183
27.252053
27.111641
26.989396
26.886243
26.802694
26.737864
26.69564
26.675159
26.675228
26.695611
26.736119
26.799973
26.879816
26.981561
27.106913
27.257595
27.442849
27.657248
27.899092
28.174315
28.485011
28.839358
29.246998
29.682279
30.16234
30.689614
31.266561
31.933282
32.625533
33.37353
34.181913
35.053391
36.029018
37.061945
38.147497
39.307798
40.545771
41.896967
43.355888
44.854434
46.443228
48.125463
49.924289
51.901753
53.895029
55.995341
58.206089
60.531723
63.126439
65.701965
68.402231
71.230767
74.191129
77.460415
80.731734
84.123709
87.66212
91.350511
95.393153
99.452342
103.628
107.96785
112.47527
117.39881
122.32558
127.37276
132.60019
138.01051
143.9251
149.77307
155.76039
161.93402
168.29008
31.925982
31.388632
30.916609
30.486769
30.091572
29.725712
29.386717
29.062111
28.767391
28.49534
28.243253
28.0104
27.795033
27.597433
27.412196
27.252416
27.112
26.989748
26.886585
26.803022
26.738175
26.69593
26.675423
26.675461
26.69581
26.736277
26.800083
26.879876
26.981564
27.106849
27.257456
27.442622
27.656923
27.898658
28.173759
28.484319
28.838513
29.245977
29.681071
30.160927
30.687973
31.264671
31.931103
32.62305
33.370718
34.178742
35.049829
36.025015
37.057469
38.142519
39.302277
40.539663
41.890212
43.348422
44.846229
46.434229
48.115611
49.913511
51.889942
53.88216
55.981341
58.19088
60.515222
63.108474
65.682523
68.381216
71.208079
74.166662
77.433953
80.703243
84.093081
87.629229
91.315227
95.355205
99.411677
103.5845
107.92136
112.42563
117.34569
122.26891
127.31242
132.536
137.94229
143.85245
149.69597
155.67873
161.8476
168.19847
31.925859
31.388735
30.916847
30.487078
30.09192
29.726084
29.387104
29.062508
28.767796
28.495751
28.243668
28.010819
27.795455
27.597855
27.412616
27.252833
27.112412
26.990152
26.886977
26.803399
26.738532
26.696262
26.675725
26.675729
26.696037
26.736458
26.800209
26.879944
26.981565
27.106775
27.257296
27.442361
27.656548
27.898158
28.17312
28.483525
28.837543
29.244807
29.679687
30.159306
30.686092
31.262504
31.928604
32.620204
33.367495
34.175107
35.045747
36.020426
37.052337
38.136811
39.295945
40.532658
41.882461
43.339857
44.836813
46.423899
48.104299
49.901132
51.876371
53.867369
55.965243
58.173385
60.496233
63.08779
65.660126
68.356994
71.181912
74.138426
77.403391
80.670311
84.05765
87.591146
91.274332
95.31117
99.36443
103.53388
107.86719
112.36769
117.28356
122.2025
127.24153
132.46038
137.86167
143.76623
149.6041
155.58092
161.74344
168.08731
31.925723
31.388896
30.917156
30.487471
30.09236
29.72655
29.387589
29.063005
28.768303
28.496264
28.244186
28.011341
27.795979
27.598379
27.413139
27.253351
27.112924
26.990653
26.887463
26.803866
26.738973
26.696671
26.676097
26.676057
26.696314
26.736676
26.800358
26.880022
26.981559
27.106674
27.257087
27.442026
27.656071
27.897525
28.172313
28.482523
28.836322
29.243334
29.677947
30.15727
30.683731
31.259786
31.925471
32.616637
33.363455
34.170553
35.040631
36.014676
37.045909
38.12966
39.288012
40.52388
41.872749
43.32912
44.825009
46.410945
48.090109
49.885599
51.859336
53.848794
55.945018
58.151393
60.472351
63.061758
65.63192
68.326467
71.14891
74.102784
77.364776
80.62866
84.012789
87.54287
91.222424
95.255195
99.304278
103.46934
107.79797
112.29351
117.20381
122.11703
127.15003
132.36245
137.75688
143.65368
149.48355
155.45183
161.60508
167.93859
31.925613
31.38911
30.917517
30.487919
30.092855
29.727074
29.388132
29.063561
28.768868
28.496836
28.244763
28.011921
27.796562
27.598961
27.413718
27.253925
27.11349
26.991206
26.887999
26.80438
26.739458
26.697119
26.676503
26.676412
26.696612
26.736908
26.800512
26.880094
26.981537
27.106545
27.256836
27.441632
27.655518
27.896797
28.171387
28.481378
28.83493
29.24166
29.67597
30.154961
30.681055
31.256708
31.921925
32.612602
33.358887
34.165404
35.03485
36.00818
37.038645
38.121581
39.27905
40.513963
41.861775
43.316987
44.811665
46.396297
48.074059
49.868024
51.840054
53.827758
55.922102
58.126462
60.44526
63.032209
65.599879
68.291763
71.11136
74.062193
77.320753
80.581124
83.961529
87.487636
91.162954
95.190962
99.235132
103.39501
107.71811
112.20773
117.11136
122.01767
127.04335
132.24789
137.63385
143.52092
149.34067
155.298
161.4392
167.75914
31.92554
31.389408
30.917968
30.488463
30.093452
29.727701
29.388779
29.064221
28.76954
28.497514
28.245445
28.012608
27.797251
27.599649
27.414402
27.254602
27.114156
26.991857
26.888628
26.80498
26.740023
26.69764
26.676972
26.676821
26.69695
26.737165
26.800675
26.880158
26.981487
27.106365
27.256509
27.441132
27.654825
27.895891
28.170244
28.479971
28.833224
29.239612
29.673559
30.152148
30.6778
31.252966
31.917618
32.607705
33.353346
34.159161
35.027843
36.000308
37.029845
38.111793
39.268192
40.501948
41.848478
43.302283
44.795492
46.37854
48.054595
49.846704
51.816653
53.802218
55.894265
58.096159
60.412312
62.996246
65.560856
68.249462
71.06555
74.012627
77.266939
80.522951
83.898723
87.419876
91.089894
95.111927
99.149914
103.30324
107.61931
112.10139
116.99647
121.89388
126.91004
132.1043
137.4791
143.35329
149.15948
155.10199
161.2267
167.52802
31.925475
31.389829
30.918528
30.489118
30.094162
29.728443
29.389544
29.064999
28.77033
28.49831
28.246246
28.013414
27.798057
27.600453
27.4152
27.255391
27.114932
26.992612
26.889357
26.805675
26.740673
26.698236
26.677504
26.67728
26.697325
26.737441
26.800836
26.8802
26.98139
27.106111
27.256079
27.440493
27.653953
27.894762
28.168829
28.478237
28.83113
29.237106
29.670614
30.148718
30.673837
31.248417
31.912388
32.601762
33.346626
34.151594
35.019354
35.990773
37.01919
38.099943
39.255049
40.487404
41.832383
43.284482
44.775909
46.357034
48.031016
49.820865
51.78828
53.771238
55.860482
58.059363
60.37228
62.952517
65.51337
68.197947
71.009712
73.952155
77.201212
80.45182
83.821836
87.336817
91.000217
95.014761
99.044972
103.19003
107.4972
111.96969
116.85385
121.73982
126.74371
131.92461
137.28483
143.14205
148.93026
154.85294
160.95545
167.23159
31.925581
31.390394
30.919217
30.489902
30.095
29.729314
29.390438
29.065904
28.771249
28.499234
28.247175
28.014347
27.79899
27.601382
27.416122
27.2563
27.115825
26.99348
26.890192
26.806468
26.741412
26.69891
26.678101
26.677787
26.697728
26.737726
26.800983
26.880202
26.981226
27.105758
27.255511
27.439675
27.652853
27.893354
28.167077
28.476101
28.828562
29.234044
29.667024
30.144545
30.669023
31.242899
31.90605
32.594568
33.338499
34.142448
35.009097
35.979259
37.006325
38.085639
39.239186
40.469852
41.812956
43.262996
44.752267
46.331065
48.002536
49.789647
51.753986
53.733776
55.819609
58.014821
60.323791
62.899515
65.455771
68.135409
70.941869
73.878613
77.121197
80.365132
83.728024
87.235348
90.890518
94.895723
98.916207
103.05089
107.34684
111.80721
116.67752
121.54891
126.53708
131.7008
137.04216
142.8773
148.64196
154.53855
160.61166
166.85437
31.926087
31.391125
30.920052
30.490826
30.095977
29.730321
29.391468
29.066946
28.772305
28.500295
28.24824
28.015416
27.800059
27.602443
27.417174
27.257337
27.116842
26.994465
26.891136
26.807361
26.74224
26.699657
26.678755
26.678335
26.698151
26.738006
26.801096
26.880143
26.980966
27.105273
27.25477
27.438632
27.651475
27.891607
28.164918
28.473484
28.825429
29.23032
29.662669
30.139495
30.663206
31.23624
31.898413
32.585907
33.328722
34.131452
34.996773
35.965429
36.990879
38.06847
39.220147
40.448787
41.789643
43.23721
44.72389
46.299888
47.968336
49.752148
51.712777
53.688741
55.770451
57.961222
60.265408
62.835653
65.386323
68.059951
70.859943
73.789727
77.02439
80.260145
83.614285
87.112185
90.757199
94.750852
98.759269
102.88104
107.16302
111.60821
116.46111
121.31412
126.28241
131.42429
136.74159
142.54845
148.2828
154.14561
160.18057
166.37978
31.926837
31.392036
30.921043
30.491896
30.097096
29.731469
29.392639
29.068126
28.7735
28.501495
28.249442
28.016622
27.801263
27.603639
27.418357
27.2585
27.117981
26.995564
26.892187
26.808351
26.743151
26.700472
26.679459
26.678911
26.698579
26.738264
26.801155
26.879996
26.980583
27.104621
27.253814
27.437321
27.649766
27.88946
28.162283
28.470307
28.82164
29.225832
29.657435
30.133437
30.656242
31.228279
31.889294
32.575574
33.317067
34.118353
34.982101
35.948972
36.972504
38.04805
39.197507
40.423741
41.761923
43.206548
44.690145
46.262807
47.927651
49.707524
51.663721
53.63511
55.711885
57.897333
60.195781
62.759446
65.303395
67.969782
70.761972
73.683349
76.908428
80.134266
83.477777
86.964209
90.596841
94.576377
98.570015
102.67594
106.9407
111.36718
116.19854
121.02872
125.97224
131.08686
136.374
142.14531
147.84142
153.6615
159.64809
165.79219
31.927924
31.393268
30.92233
30.49326
30.098508
29.732909
29.394104
29.069599
28.774992
28.502988
28.250938
28.018123
27.80276
27.605122
27.419822
27.259939
27.119386
26.996916
26.893472
26.809554
26.744249
26.701442
26.680281
26.679563
26.699035
26.738494
26.801122
26.879692
26.979964
27.103647
27.252439
27.435474
27.647394
27.886512
28.158691
28.466
28.816526
29.219797
29.650415
30.12533
30.646939
31.217663
31.877149
32.561829
33.301577
34.100957
34.962626
35.927138
36.948136
38.020978
39.167499
40.390546
41.725189
43.165913
44.645419
46.213652
47.873704
49.64834
51.598636
53.563927
55.634117
57.812456
60.103229
62.658081
65.193018
67.849683
70.631381
73.541433
76.753583
79.966015
83.295137
86.766014
90.381814
94.342126
98.315596
102.39982
106.64099
111.04176
115.84342
120.64209
125.55134
130.62811
135.8733
141.59505
147.23772
152.99797
158.91673
164.98358
31.9292
31.394671
30.923763
30.494758
30.100048
29.734473
29.395693
29.071193
28.776606
28.504602
28.252555
28.019744
27.804375
27.606721
27.421399
27.261484
27.120892
26.998358
26.894835
26.81082
26.745392
26.702436
26.681102
26.680186
26.699428
26.738624
26.800946
26.8792
26.979108
27.102379
27.250705
27.433194
27.644504
27.882953
28.154387
28.460867
28.810459
29.212662
29.642141
30.115797
30.636021
31.205222
31.862937
32.545764
33.283489
34.080659
34.939917
35.901694
36.919749
37.98945
39.132558
40.351902
41.682425
43.118608
44.593348
46.156416
47.810877
49.579393
51.522789
53.480942
55.543415
57.713415
59.995176
62.539665
65.063991
67.709192
70.478501
73.375169
76.572006
79.768536
83.08057
86.532939
90.128669
94.066046
98.015404
102.07364
106.28651
110.65638
115.42232
120.18298
125.05079
130.08173
135.27605
140.93751
146.51508
152.20242
158.03846
164.01115
31.930585
31.396207
30.925325
30.496384
30.101715
29.736164
29.397411
29.072915
28.778353
28.506348
28.254302
28.021497
27.80612
27.608446
27.423098
27.263145
27.122507
26.999898
26.896283
26.812153
26.746582
26.703451
26.681914
26.680769
26.699743
26.738632
26.800599
26.878485
26.977969
27.100762
27.248547
27.430401
27.641004
27.878677
28.149247
28.454767
28.803276
29.204242
29.632399
30.104596
30.623214
31.19065
31.846311
32.526988
33.262367
34.056974
34.913434
35.872035
36.886673
37.952724
39.091865
40.306902
41.632631
43.063527
44.532712
46.089758
47.737696
49.499066
51.434398
53.384202
55.437641
57.59787
59.869061
62.401382
64.913237
67.544944
70.299666
73.180561
76.359318
79.537066
82.8289
86.259361
89.831324
93.741489
97.662202
101.68955
105.8687
110.20171
114.92497
119.64016
124.45832
129.4343
134.56753
140.15655
145.65587
151.25557
156.99226
162.85201
31.932142
31.398074
30.927259
30.498415
30.103807
29.738289
29.399579
29.075086
28.780562
28.508556
28.256513
28.023718
27.808331
27.610627
27.425244
27.265237
27.124536
27.00182
26.898075
26.813786
26.748015
26.704639
26.68282
26.681354
26.699956
26.738418
26.79989
26.877266
26.976162
27.098291
27.245324
27.426298
27.63592
27.872519
28.141892
28.446082
28.793092
29.192345
29.618671
30.088845
30.605239
31.170229
31.823046
32.500745
33.232872
34.023924
34.876505
35.830698
36.840594
37.901576
39.035208
40.244256
41.56332
42.986859
44.448308
45.99696
47.635796
49.387192
51.311259
53.249383
55.29018
57.436728
59.693089
62.208337
64.702687
67.315433
70.049642
72.908331
76.061629
79.212887
82.476182
85.875677
89.414008
93.285589
97.16564
101.1491
105.28028
109.56076
114.22318
118.87346
123.62071
128.51813
133.56404
139.04953
144.43707
149.91176
155.50703
161.20642
31.933304
31.399707
30.929062
30.500368
30.10585
29.740383
29.40173
29.077248
28.782774
28.510769
28.258732
28.025953
27.810555
27.612818
27.427396
27.26733
27.126559
27.003721
26.89983
26.81536
26.749363
26.705713
26.683577
26.681751
26.699934
26.737914
26.798832
26.875635
26.973872
27.095257
27.241445
27.421429
27.629954
27.865351
28.133385
28.436086
28.781417
29.178754
29.603031
30.070941
30.584844
31.147096
31.796729
32.471092
33.199579
33.986647
34.83488
35.784133
36.788708
37.844003
38.97145
40.173774
41.485347
42.90061
44.353355
45.892553
47.521131
49.261284
51.172643
53.097578
55.124097
57.255183
59.494784
61.990713
64.465231
67.056494
69.767423
72.600882
75.725235
78.846343
82.077118
85.441291
88.94123
92.768728
96.602274
100.53549
104.61174
108.83205
113.4247
118.00056
122.6665
127.47387
132.41976
137.7868
143.04672
148.37904
153.8138
159.33188
31.933767
31.4012
30.930815
30.502388
30.108033
29.742655
29.404096
29.079638
28.785241
28.513242
28.26122
28.028466
27.813059
27.615283
27.429814
27.269674
27.128817
27.005824
26.901747
26.81705
26.750766
26.706769
26.684232
26.681953
26.699608
26.736979
26.797196
26.87328
26.970688
27.091127
27.236244
27.41499
27.622138
27.856023
28.122369
28.423195
28.766414
29.16134
29.583037
30.048095
30.558864
31.117671
31.763299
32.433464
33.157365
33.939417
34.782172
35.725197
36.723066
37.771192
38.890834
40.084673
41.386791
42.7916
44.233352
45.760603
47.376212
49.102144
50.997422
52.90567
54.914101
57.025582
59.243929
61.715335
64.164653
66.728604
69.409921
72.211261
75.29874
78.381415
81.570716
84.889814
88.340733
92.111923
95.886046
99.75505
103.76107
107.90445
112.40796
116.88874
121.4509
126.14345
130.96198
136.17852
141.27673
146.42928
151.66221
156.95343
31.932242
31.402048
30.932379
30.504294
30.110202
29.745003
29.406613
29.082208
28.787937
28.515959
28.263966
28.031257
27.815845
27.618022
27.432497
27.272265
27.131301
27.008107
26.903791
26.818797
26.752139
26.707693
26.684635
26.68177
26.698738
26.735318
26.794627
26.869779
26.96611
27.085322
27.22905
27.406197
27.611563
27.843491
28.107651
28.406048
28.746534
29.138339
29.556694
30.018063
30.524778
31.079138
31.71958
32.384304
33.102266
33.877825
34.713479
35.648431
36.637618
37.676455
38.785977
39.968812
41.258671
42.649927
44.077405
45.589141
47.187903
48.895342
50.769698
52.656229
54.641105
56.727033
58.917659
61.357067
63.773489
66.30176
68.944371
71.703713
74.74295
77.775332
80.91034
84.170414
87.55713
91.254568
94.950864
98.735779
102.64989
106.69267
111.07967
115.43639
119.86336
124.40664
129.06004
134.08215
138.97239
143.89493
148.87124
153.87604
31.930111
31.401234
30.933086
30.505941
30.112084
29.747021
29.408849
29.084549
28.79046
28.518519
28.266574
28.033931
27.81852
27.620647
27.435066
27.274732
27.133656
27.010233
26.905647
26.820319
26.753238
26.708282
26.684637
26.68111
26.697302
26.732986
26.791269
26.86536
26.960473
27.078308
27.220477
27.395806
27.599157
27.828874
28.090566
28.386223
28.723626
29.111905
29.526483
29.983693
30.485836
31.035173
31.669761
32.328346
33.039606
33.807842
34.635478
35.561317
36.540696
37.569038
38.667135
39.83754
41.113545
42.489481
43.900815
45.39499
46.974682
48.661181
50.511837
52.373766
54.33193
56.388868
58.548043
60.95114
63.33022
65.81797
68.41661
71.128261
74.112711
77.087955
80.161281
83.354308
86.668105
90.281806
93.889788
97.579364
101.38936
105.3183
109.57368
113.79051
118.06538
122.44119
126.90995
131.71559
136.3755
141.04481
145.74046
150.43447
31.927017
31.399927
30.932608
30.506395
30.113717
29.749225
29.411347
29.087116
28.793218
28.52131
28.269468
28.036959
27.821573
27.623643
27.437994
27.277524
27.136296
27.012543
26.907572
26.821767
26.754082
26.708399
26.683919
26.679454
26.694541
26.728945
26.785769
26.858344
26.951723
27.0676
27.207555
27.380296
27.580772
27.807339
28.065522
28.357283
28.690303
29.073588
29.482802
29.934087
30.429727
30.971912
31.598181
32.248049
32.949787
33.707606
34.523861
35.436755
36.402182
37.415597
38.497439
39.650159
40.906452
42.26059
43.648947
45.118115
46.670639
48.327307
50.144192
51.971033
53.891102
55.906718
58.021052
60.372362
62.698176
65.128134
67.664078
70.307724
73.214052
76.107842
79.093281
82.190829
85.400849
88.895497
92.378082
95.932481
99.59507
103.36312
107.43305
111.45343
115.51547
119.65803
123.87087
128.37822
132.72298
137.0485
141.36662
145.64665
31.923935
31.39879
30.932234
30.506527
30.114079
29.750049
29.412928
29.089015
28.795629
28.523922
28.272073
28.039527
27.824037
27.626015
27.440322
27.279744
27.138403
27.01432
26.908959
26.822661
26.754336
26.707881
26.682507
26.677042
26.690943
26.723973
26.779244
26.850203
26.941735
27.05553
27.193134
27.363133
27.560561
27.78379
28.038257
28.325892
28.654274
29.032285
29.435827
29.880843
30.369601
30.904221
31.521689
32.162332
32.853994
33.600787
34.404996
35.304188
36.254849
37.25246
38.317089
39.451079
40.686493
42.017555
43.381585
44.824255
46.347994
47.973056
49.754156
51.543823
53.423554
55.395398
57.462224
59.758683
62.028095
64.396876
66.866469
69.438146
72.261854
75.069583
77.962239
80.959085
84.059784
87.4292
90.780098
94.19279
97.701222
101.30151
105.17862
108.99552
112.83809
116.74122
120.6928
124.8977
128.92537
132.90788
136.85269
140.72757
31.919649
31.397129
30.93175
30.506856
30.114861
29.751261
29.414066
29.090516
28.797423
28.525813
28.274339
28.042382
27.827166
27.629097
27.443235
27.28234
27.140702
27.016029
26.910014
26.822941
26.753638
26.706003
26.679271
26.67233
26.684473
26.715446
26.768387
26.836929
26.925713
27.036397
27.170482
27.336374
27.529234
27.747458
27.996351
28.277794
28.599218
28.969347
29.364372
29.799984
30.278425
30.801704
31.40598
32.0328
32.709366
33.439646
34.22581
35.104483
36.033032
37.00698
38.045839
39.151789
40.355957
41.652511
42.980166
44.38317
45.86383
47.441619
49.169217
50.903322
52.722773
54.629231
56.625123
58.839715
61.024995
63.302575
65.673324
68.137885
70.838745
73.518662
76.273708
79.121425
82.060526
85.24523
88.402401
91.60724
94.890311
98.246253
101.84376
105.36714
108.89488
112.45667
116.03843
119.81894
123.40617
126.91722
130.35489
133.68635
31.915524
31.3955
30.931265
30.507132
30.115651
29.7524
29.415413
29.092214
28.79896
28.527543
28.276193
28.044094
27.828657
27.63048
27.444702
27.283869
27.141909
27.016809
26.910217
26.822404
26.752181
26.703433
26.675396
26.666938
26.677286
26.706199
26.756844
26.82288
26.908814
27.016265
27.146689
27.308306
27.496411
27.709431
27.952534
28.227556
28.54177
28.903812
29.290024
29.71595
30.183804
30.695454
31.286208
31.898871
32.559986
33.273371
34.041083
34.898781
35.804734
36.754508
37.767043
38.844356
40.016626
41.278001
42.568579
43.931115
45.367879
46.897488
48.570558
50.248065
52.006137
53.846057
55.769807
57.901203
60.001053
62.186109
64.45668
66.812809
69.389483
71.940404
74.556805
77.254569
80.031532
83.0314
85.995316
88.993506
92.053358
95.168291
98.491429
101.72846
104.951
108.18422
111.41274
114.7916
117.96633
121.04068
124.01417
126.85464
31.909624
31.393108
30.93054
30.507496
30.116725
29.754002
29.417286
29.094477
28.801242
28.530162
28.278827
28.046565
27.831166
27.632957
27.446859
27.285527
27.142634
27.016908
26.909398
26.820372
26.748651
26.698098
26.667942
26.656708
26.664003
26.68977
26.736838
26.79911
26.880788
26.983409
27.108379
27.263681
27.444771
27.650105
27.884648
28.150153
28.453622
28.80348
29.176489
29.587801
30.039637
30.533692
31.103965
31.695161
32.332831
33.020568
33.760257
34.586096
35.457731
36.37079
37.343352
38.377184
39.501034
40.709214
41.943958
43.244891
44.61503
46.071788
47.662525
49.254658
50.920244
52.660011
54.475306
56.481799
58.45359
60.500165
62.621053
64.815462
67.20732
69.566729
71.977818
74.454134
76.992379
79.721084
82.402648
85.100235
87.836937
90.604823
93.535382
96.36567
99.157989
101.93192
104.67123
107.49988
110.11639
112.60715
114.96864
117.17112
31.903978
31.390766
30.929818
30.507808
30.117714
29.755485
29.419034
29.096592
28.803377
28.532553
28.281282
28.048917
27.833484
27.635166
27.448709
27.286904
27.143413
27.017009
26.908496
26.81825
26.744973
26.692578
26.660232
26.646561
26.651245
26.673981
26.717319
26.775784
26.853164
26.95092
27.070413
27.219313
27.393284
27.590817
27.816675
28.072526
28.365078
28.702198
29.062065
29.458931
29.894756
30.371213
30.921009
31.490757
32.105021
32.76717
33.478919
34.27301
35.11047
35.98698
36.91975
37.910292
38.985881
40.140674
41.319292
42.55943
43.863563
45.247962
46.756977
48.264431
49.838366
51.478995
53.187064
55.070252
56.915839
58.826185
60.800116
62.836101
65.047374
67.220174
69.431791
71.693646
74.001498
76.46954
78.880924
81.292278
83.722929
86.16406
88.727521
91.180383
93.576712
95.931578
98.228763
100.56573
102.68959
104.67194
106.50756
108.16999
31.895905
31.387339
30.928739
30.508196
30.119064
29.757528
29.421469
29.09951
28.806365
28.535865
28.284661
28.052145
27.836641
27.638155
27.451192
27.288644
27.144217
27.016703
26.906753
26.814685
26.739069
26.683894
26.648316
26.631011
26.631597
26.649749
26.687687
26.740582
26.811597
26.902207
27.013692
27.1532
27.316737
27.502845
27.71598
27.957691
28.234274
28.553139
28.893806
29.269454
29.681871
30.13264
30.65257
31.191058
31.77122
32.396105
33.067175
33.815062
34.602792
35.426138
36.301062
37.228703
38.234173
39.311304
40.408438
41.561251
42.770424
44.050553
45.441901
46.827563
48.269853
49.768288
51.322806