/*--------------------------------*- C++ -*----------------------------------*\
| =========                 |                                                 |
| \\      /  F ield         | OpenFOAM: The Open Source CFD Toolbox           |
|  \\    /   O peration     | Version:  2406                                  |
|   \\  /    A nd           | Website:  www.openfoam.com                      |
|    \\/     M anipulation  |                                                 |
\*---------------------------------------------------------------------------*/
FoamFile
{
    version     2.0;
    format      ascii;
    arch        "LSB;label=32;scalar=64";
    class       volVectorField;
    location    "0";
    object      U;
}
// * * * * * * * * * * * * * * * * * * * * * * * * * * * * * * * * * * * * * //

dimensions      [0 1 -1 0 0 0 0];

internalField   nonuniform List<vector> 
18060
(
(0.760828 -0.0012797224 0)
(1.4251525 -0.004022953 0)
(2.5961424 -0.0044919627 0)
(3.8999819 -0.0040481108 0)
(5.1863163 -0.0035854104 0)
(6.6181203 -0.0030161508 0)
(8.0125703 -0.0024092274 0)
(9.2641837 -0.0018200121 0)
(10.402898 -0.0012106201 0)
(11.25934 -0.00066597066 0)
(11.756626 -0.00031501135 0)
(12.016326 -0.00011383634 0)
(2.394556 -0.0093888992 0)
(3.6271848 -0.02270564 0)
(5.4009342 -0.022091453 0)
(7.2263377 -0.01850156 0)
(8.9637256 -0.015615749 0)
(10.851416 -0.012658154 0)
(12.658953 -0.0098643042 0)
(14.265323 -0.0073289772 0)
(15.718294 -0.0048209457 0)
(16.808778 -0.0026367021 0)
(17.442261 -0.0012440614 0)
(17.773611 -0.00044957131 0)
(4.0441117 -0.018937682 0)
(4.9188129 -0.044072797 0)
(6.4923213 -0.043122203 0)
(8.3185867 -0.036366989 0)
(10.121347 -0.030677814 0)
(12.111753 -0.024815726 0)
(14.033686 -0.01930208 0)
(15.748409 -0.014322484 0)
(17.303127 -0.0094169685 0)
(18.47284 -0.0051538781 0)
(19.154453 -0.0024345191 0)
(19.511787 -0.00088081358 0)
(5.8916849 -0.023901143 0)
(6.3028196 -0.061906844 0)
(7.5680355 -0.065565908 0)
(9.3062331 -0.056945099 0)
(11.097694 -0.048471794 0)
(13.112953 -0.039364575 0)
(15.079877 -0.030668015 0)
(16.844198 -0.022773787 0)
(18.448747 -0.014983353 0)
(19.658802 -0.0082104512 0)
(20.366061 -0.0038840662 0)
(20.737401 -0.0014059196 0)
(8.0131495 -0.024818983 0)
(8.0797184 -0.073034896 0)
(8.8869401 -0.087250455 0)
(10.41974 -0.079270714 0)
(12.120415 -0.06848757 0)
(14.089386 -0.056028008 0)
(16.04179 -0.043809204 0)
(17.807427 -0.032597569 0)
(19.420527 -0.021473297 0)
(20.640416 -0.011783895 0)
(21.355548 -0.0055829772 0)
(21.731102 -0.0020196341 0)
(10.339243 -0.025763424 0)
(10.299299 -0.076027274 0)
(10.578151 -0.10447734 0)
(11.757972 -0.10152995 0)
(13.276945 -0.089748247 0)
(15.12872 -0.074229504 0)
(17.010306 -0.05835933 0)
(18.731871 -0.04355713 0)
(20.314373 -0.028741852 0)
(21.514702 -0.015797118 0)
(22.2202 -0.0074945292 0)
(22.589972 -0.0027053447 0)
(12.973889 -0.027948821 0)
(13.114923 -0.074869191 0)
(12.983094 -0.1128897 0)
(13.588578 -0.12221631 0)
(14.773779 -0.11255052 0)
(16.401454 -0.094856285 0)
(18.1368 -0.075231428 0)
(19.756594 -0.056415152 0)
(21.259413 -0.03731339 0)
(22.402946 -0.020542279 0)
(23.076275 -0.0097561018 0)
(23.426979 -0.0035045428 0)
(15.683592 -0.031903946 0)
(15.859824 -0.078629123 0)
(15.906217 -0.11087345 0)
(15.884791 -0.13404655 0)
(16.573238 -0.13180322 0)
(17.854788 -0.11450692 0)
(19.365459 -0.09200454 0)
(20.826113 -0.069443983 0)
(22.201053 -0.046060069 0)
(23.250939 -0.025394422 0)
(23.869204 -0.012064355 0)
(24.187016 -0.0042975333 0)
(18.607286 -0.035533326 0)
(18.760507 -0.086349038 0)
(19.057621 -0.11115294 0)
(18.898804 -0.13369573 0)
(18.931446 -0.14422449 0)
(19.675867 -0.13227683 0)
(20.840178 -0.108635 0)
(22.059802 -0.082831722 0)
(23.241402 -0.055152714 0)
(24.149221 -0.030447084 0)
(24.68267 -0.014453324 0)
(24.949407 -0.0050762846 0)
(21.672824 -0.039221178 0)
(21.801455 -0.094565389 0)
(22.075069 -0.12067492 0)
(22.335281 -0.12946837 0)
(21.998279 -0.14302278 0)
(21.996339 -0.14372144 0)
(22.640704 -0.12277988 0)
(23.507502 -0.095245256 0)
(24.411981 -0.06380676 0)
(25.118411 -0.035270806 0)
(25.53122 -0.016701074 0)
(25.724877 -0.0057271406 0)
(24.772741 -0.042702833 0)
(24.87533 -0.10241898 0)
(25.095754 -0.1322881 0)
(25.451628 -0.13518603 0)
(25.514275 -0.1335775 0)
(24.948575 -0.14149988 0)
(24.858396 -0.13044355 0)
(25.223432 -0.10446622 0)
(25.742924 -0.07073424 0)
(26.177146 -0.039189681 0)
(26.427765 -0.018458219 0)
(26.523005 -0.0060898111 0)
(27.758875 -0.045660066 0)
(27.833431 -0.10935829 0)
(27.998064 -0.14277685 0)
(28.268683 -0.1459508 0)
(28.57783 -0.13414051 0)
(28.356225 -0.12673501 0)
(27.561448 -0.12558402 0)
(27.254129 -0.10699172 0)
(27.257128 -0.074136996 0)
(27.338798 -0.041233485 0)
(27.382 -0.019245624 0)
(27.351487 -0.0059186525 0)
(30.44978 -0.048002932 0)
(30.494481 -0.11442782 0)
(30.598768 -0.15130003 0)
(30.780451 -0.15564185 0)
(30.995283 -0.14219648 0)
(31.205847 -0.11875832 0)
(30.597361 -0.107208 0)
(29.603321 -0.09820425 0)
(28.955854 -0.071467666 0)
(28.606109 -0.040267371 0)
(28.398012 -0.01847622 0)
(28.213833 -0.0049248272 0)
(32.766133 -0.049325274 0)
(32.776368 -0.11800863 0)
(32.808545 -0.15687226 0)
(32.881636 -0.16233345 0)
(32.973663 -0.14866084 0)
(33.081374 -0.12144647 0)
(33.07838 -0.091316265 0)
(32.273594 -0.074004883 0)
(30.995023 -0.057542023 0)
(30.113924 -0.03370184 0)
(29.589489 -0.014818048 0)
(29.207165 -0.002374118 0)
(33.958105 -0.048249531 0)
(33.927655 -0.11624259 0)
(33.882947 -0.15699662 0)
(33.84622 -0.16320103 0)
(33.822371 -0.14977965 0)
(33.806644 -0.12235139 0)
(33.798741 -0.089054864 0)
(33.641087 -0.056412535 0)
(32.795749 -0.0346851 0)
(31.605753 -0.02028403 0)
(30.788661 -0.0074738955 0)
(30.203382 0.0021267231 0)
(34.189872 -0.045602511 0)
(34.150117 -0.11180154 0)
(34.083178 -0.15271789 0)
(34.015143 -0.15992882 0)
(33.961252 -0.14745425 0)
(33.916619 -0.12110726 0)
(33.887248 -0.087648683 0)
(33.867516 -0.052509375 0)
(33.721758 -0.019249016 0)
(32.919643 -0.0028627446 0)
(31.964092 0.0035999924 0)
(31.20338 0.0088028321 0)
(34.192231 -0.042469271 0)
(34.156259 -0.10562354 0)
(34.091296 -0.14626744 0)
(34.024278 -0.15524682 0)
(33.970758 -0.14445982 0)
(33.926111 -0.11925418 0)
(33.89677 -0.086801722 0)
(33.881344 -0.051930139 0)
(33.879429 -0.016103596 0)
(33.748359 0.010800174 0)
(33.140782 0.019033535 0)
(32.330458 0.019619428 0)
(34.193109 -0.039545067 0)
(34.160377 -0.099653785 0)
(34.099557 -0.14035373 0)
(34.034869 -0.15059824 0)
(33.982354 -0.14124512 0)
(33.938 -0.1174103 0)
(33.908563 -0.085830935 0)
(33.892924 -0.051687825 0)
(33.890472 -0.016252662 0)
(33.895093 0.013306041 0)
(33.746625 0.028592692 0)
(33.225099 0.030980254 0)
(34.193975 -0.0364847 0)
(34.164599 -0.093203767 0)
(34.108243 -0.13347869 0)
(34.046339 -0.14531235 0)
(33.995072 -0.13760683 0)
(33.951123 -0.11523949 0)
(33.92162 -0.084692302 0)
(33.905749 -0.051265339 0)
(33.902961 -0.016374021 0)
(33.913979 0.01302497 0)
(33.923982 0.031165853 0)
(33.809167 0.039540976 0)
(34.194805 -0.03330036 0)
(34.168881 -0.08623342 0)
(34.117397 -0.12584743 0)
(34.058733 -0.13916398 0)
(34.008951 -0.13328702 0)
(33.965552 -0.11264976 0)
(33.936019 -0.083318456 0)
(33.919905 -0.050760716 0)
(33.916712 -0.016503381 0)
(33.927223 0.012582479 0)
(33.944231 0.03081334 0)
(33.958057 0.041367469 0)
(34.195513 -0.030385633 0)
(34.17268 -0.079643809 0)
(34.125837 -0.1183436 0)
(34.070429 -0.13300162 0)
(34.022238 -0.12886182 0)
(33.979494 -0.10993201 0)
(33.949996 -0.081866315 0)
(33.933649 -0.050247395 0)
(33.930003 -0.016657988 0)
(33.940013 0.01215311 0)
(33.956727 0.030350495 0)
(33.976083 0.040975496 0)
(34.196239 -0.027151113 0)
(34.176728 -0.072071823 0)
(34.135222 -0.1093554 0)
(34.083867 -0.12536256 0)
(34.037792 -0.12324549 0)
(33.995993 -0.10642871 0)
(33.966607 -0.079966112 0)
(33.950006 -0.049524723 0)
(33.945851 -0.016787912 0)
(33.955206 0.011578042 0)
(33.971472 0.02970585 0)
(33.990612 0.040409297 0)
(34.196799 -0.024459738 0)
(34.179954 -0.065580545 0)
(34.143009 -0.10132714 0)
(34.095393 -0.11830631 0)
(34.051397 -0.11793188 0)
(34.010599 -0.10304443 0)
(33.981391 -0.078097338 0)
(33.964595 -0.048797168 0)
(33.959964 -0.016907031 0)
(33.968722 0.011048191 0)
(33.984533 0.029092266 0)
(34.003377 0.039845006 0)
(34.197389 -0.021383195 0)
(34.183451 -0.057949136 0)
(34.151817 -0.091462568 0)
(34.108941 -0.10929112 0)
(34.06777 -0.11093963 0)
(34.028453 -0.098479016 0)
(33.9996 -0.07553197 0)
(33.982605 -0.047761269 0)
(33.977384 -0.017011631 0)
(33.985344 0.010344868 0)
(34.000563 0.028271216 0)
(34.019057 0.039086962 0)
(34.197816 -0.018970138 0)
(34.186043 -0.051820767 0)
(34.158607 -0.083198014 0)
(34.119803 -0.10143082 0)
(34.081239 -0.10465447 0)
(34.043397 -0.094265416 0)
(34.014974 -0.073115897 0)
(33.997862 -0.046752607 0)
(33.992136 -0.017070215 0)
(33.999385 0.0097205114 0)
(34.014048 0.027511946 0)
(34.032195 0.038374559 0)
(34.198266 -0.016215038 0)
(34.188819 -0.044676967 0)
(34.166156 -0.073147914 0)
(34.13241 -0.091442983 0)
(34.097339 -0.096386148 0)
(34.061642 -0.088547565 0)
(34.033955 -0.069757662 0)
(34.016787 -0.045294521 0)
(34.010442 -0.017081151 0)
(34.016752 0.0088986309 0)
(34.03066 0.026480983 0)
(34.048324 0.037388718 0)
(34.19858 -0.014123026 0)
(34.190789 -0.039156769 0)
(34.171695 -0.065072371 0)
(34.142069 -0.083052509 0)
(34.110075 -0.089184622 0)
(34.076417 -0.083399933 0)
(34.049535 -0.066654642 0)
(34.03241 -0.043893801 0)
(34.025569 -0.017027106 0)
(34.031063 0.0081847394 0)
(34.044286 0.025546835 0)
(34.061497 0.036477951 0)
(34.198901 -0.011797013 0)
(34.192825 -0.032926396 0)
(34.177593 -0.055623039 0)
(34.152813 -0.072770862 0)
(34.124744 -0.080003843 0)
(34.093911 -0.076586173 0)
(34.06829 -0.062420606 0)
(34.05137 -0.041898896 0)
(34.043968 -0.01685519 0)
(34.048419 0.0072753343 0)
(34.060726 0.024295581 0)
(34.077312 0.03522868 0)
(34.199122 -0.010050307 0)
(34.194241 -0.028187442 0)
(34.181805 -0.048202276 0)
(34.160817 -0.064325419 0)
(34.136077 -0.072151649 0)
(34.107844 -0.070523723 0)
(34.083516 -0.058528197 0)
(34.066915 -0.039983702 0)
(34.059105 -0.01660405 0)
(34.062665 0.0064983747 0)
(34.074147 0.023162154 0)
(34.09015 0.034067287 0)
(34.199337 -0.0081978315 0)
(34.195628 -0.023106205 0)
(34.186019 -0.040018885 0)
(34.169154 -0.054594811 0)
(34.148338 -0.062712112 0)
(34.123438 -0.062912135 0)
(34.100959 -0.053454612 0)
(34.084953 -0.037366648 0)
(34.076766 -0.0161412 0)
(34.079261 0.0055668281 0)
(34.089691 0.021699935 0)
(34.10492 0.032521916 0)
(34.199485 -0.0067989114 0)
(34.196593 -0.019233599 0)
(34.189006 -0.033630884 0)
(34.175285 -0.046687159 0)
(34.157698 -0.054715171 0)
(34.135777 -0.056171909 0)
(34.115125 -0.048780972 0)
(34.099829 -0.034838518 0)
(34.09144 -0.015584651 0)
(34.093043 0.0047824808 0)
(34.102526 0.020358636 0)
(34.117025 0.031055469 0)
(34.19962 -0.0054068944 0)
(34.197474 -0.015349919 0)
(34.191778 -0.027091124 0)
(34.181168 -0.03828459 0)
(34.167016 -0.045856084 0)
(34.148542 -0.04834524 0)
(34.130229 -0.043109251 0)
(34.115996 -0.031608266 0)
(34.107559 -0.014730181 0)
(34.108204 0.0039260445 0)
(34.116562 0.018724093 0)
(34.13015 0.029194743 0)
(34.199714 -0.0043368177 0)
(34.198096 -0.012345367 0)
(34.193761 -0.02194509 0)
(34.185499 -0.031456485 0)
(34.174115 -0.038374925 0)
(34.158642 -0.041426255 0)
(34.142568 -0.037865248 0)
(34.129495 -0.028464988 0)
(34.121199 -0.013766515 0)
(34.121078 0.0032214406 0)
(34.128421 0.017192376 0)
(34.141136 0.027373327 0)
(34.199793 -0.0033516397 0)
(34.19862 -0.0095641849 0)
(34.195452 -0.017111944 0)
(34.189285 -0.024856521 0)
(34.180523 -0.030873733 0)
(34.168118 -0.034157487 0)
(34.154564 -0.03208253 0)
(34.142964 -0.024803618 0)
(34.135051 -0.012484204 0)
(34.134236 0.0025481233 0)
(34.140493 0.015456711 0)
(34.152205 0.025200698 0)
(34.199851 -0.0025749667 0)
(34.199 -0.0073621645 0)
(34.196687 -0.013240757 0)
(34.19211 -0.019443823 0)
(34.185437 -0.024523646 0)
(34.175647 -0.027735032 0)
(34.164437 -0.026727191 0)
(34.154362 -0.021228375 0)
(34.147016 -0.01108432 0)
(34.145711 0.002018995 0)
(34.150997 0.013782584 0)
(34.161737 0.022988521 0)
(34.199894 -0.0019216937 0)
(34.199292 -0.0055032715 0)
(34.197646 -0.0099403318 0)
(34.194343 -0.014732817 0)
(34.18942 -0.018834084 0)
(34.181961 -0.021736861 0)
(34.173028 -0.02147717 0)
(34.164594 -0.017524273 0)
(34.158032 -0.0094753641 0)
(34.156424 0.0015972995 0)
(34.160804 0.012034477 0)
(34.170541 0.020532832 0)
(34.199927 -0.0013920231 0)
(34.19951 -0.0039918611 0)
(34.198367 -0.0072362586 0)
(34.196043 -0.010809415 0)
(34.192513 -0.01398148 0)
(34.187011 -0.016434343 0)
(34.180137 -0.016625372 0)
(34.173331 -0.013920828 0)
(34.167696 -0.0077667531 0)
(34.165986 0.00128803 0)
(34.169588 0.010277669 0)
(34.178367 0.017908343 0)
(34.19995 -0.00098958997 0)
(34.199662 -0.0028406969 0)
(34.19887 -0.0051633938 0)
(34.197246 -0.0077592831 0)
(34.194742 -0.010128488 0)
(34.190747 -0.012082648 0)
(34.185577 -0.012468217 0)
(34.180238 -0.010672739 0)
(34.175574 -0.0060994499 0)
(34.173953 0.0010797708 0)
(34.176961 0.0085787176 0)
(34.184892 0.01520297 0)
(34.199967 -0.00065357229 0)
(34.199778 -0.0018778331 0)
(34.199255 -0.0034210196 0)
(34.198175 -0.0051676078 0)
(34.196489 -0.0067994415 0)
(34.19374 -0.0082190739 0)
(34.190058 -0.008638338 0)
(34.186099 -0.007545074 0)
(34.182466 -0.0043877959 0)
(34.181093 0.00090643494 0)
(34.183633 0.0067464003 0)
(34.190762 0.012123978 0)
(34.199978 -0.00042299617 0)
(34.199849 -0.0012160856 0)
(34.199491 -0.0022188012 0)
(34.198747 -0.0033632346 0)
(34.197575 -0.0044491554 0)
(34.195638 -0.0054256621 0)
(34.192977 -0.0057750402 0)
(34.190026 -0.00511414 0)
(34.187226 -0.0029917927 0)
(34.186154 0.00074946008 0)
(34.188421 0.0050579675 0)
(34.194965 0.0091677303 0)
(34.199985 -0.00021834609 0)
(34.1999 -0.00062801294 0)
(34.199663 -0.0011472538 0)
(34.199168 -0.0017438311 0)
(34.198381 -0.0023170283 0)
(34.197061 -0.0028464851 0)
(34.195209 -0.0030623028 0)
(34.193093 -0.002742907 0)
(34.191039 -0.001599534 0)
(34.190312 0.00050539825 0)
(34.192404 0.0030230578 0)
(34.198463 0.0055031231 0)
(34.199988 -7.9590818e-05 0)
(34.199922 -0.00022848081 0)
(34.199736 -0.00041719989 0)
(34.199347 -0.00063454822 0)
(34.198725 -0.00084442183 0)
(34.197674 -0.0010405059 0)
(34.196182 -0.0011246182 0)
(34.194443 -0.0010113681 0)
(34.192736 -0.00057751762 0)
(34.192236 0.0002131389 0)
(34.194273 0.0011831298 0)
(34.200106 0.0021551625 0)
(12.102434 -2.0090712e-05 2.9547602e-26)
(12.102843 1.1078711e-05 -1.2229798e-26)
(12.076149 2.6876309e-05 -2.330198e-26)
(12.037452 3.414526e-05 1.7855715e-26)
(11.995702 3.6861548e-05 -7.6355131e-27)
(11.954662 3.7516739e-05 8.6474622e-28)
(11.915865 3.7109433e-05 8.4789295e-26)
(11.879003 3.6231473e-05 -3.6111623e-25)
(11.845822 3.5075971e-05 5.1937524e-25)
(11.815959 3.3910332e-05 -1.8230489e-25)
(11.788652 3.2824137e-05 3.1434609e-25)
(11.763691 3.1763033e-05 -4.4043813e-25)
(11.740888 3.0762062e-05 -2.3593783e-25)
(11.719975 2.993184e-05 3.638834e-25)
(11.700045 2.9272501e-05 8.396511e-26)
(11.682287 2.8779193e-05 -1.1603755e-25)
(11.665892 2.8438471e-05 -4.6609731e-25)
(11.650577 2.8296514e-05 1.1388704e-24)
(11.636168 2.8394601e-05 -1.0686571e-24)
(11.622518 2.8733336e-05 2.3599095e-25)
(11.60912 2.932512e-05 -1.0040572e-24)
(11.596437 3.0175855e-05 1.2558499e-24)
(11.584404 3.1289256e-05 -8.0756738e-25)
(11.572679 3.2665035e-05 3.4464667e-25)
(11.561195 3.4298126e-05 1.0761193e-24)
(11.549883 3.6222101e-05 -1.2112808e-24)
(11.538271 3.8535981e-05 -2.2399671e-25)
(11.527383 4.0996035e-05 2.7422946e-25)
(11.516121 4.3820678e-05 -2.8696927e-25)
(11.504421 4.704891e-05 1.6894571e-24)
(11.492219 5.0701521e-05 -4.8082965e-25)
(11.478975 5.4994149e-05 -4.9281497e-25)
(11.465219 5.9781002e-05 8.9596206e-25)
(11.451019 6.504889e-05 -2.3253205e-24)
(11.436021 7.0927421e-05 9.4630902e-25)
(11.420149 7.7439462e-05 -1.1110612e-25)
(11.40305 8.4796223e-05 -8.3497627e-25)
(11.384368 9.3166564e-05 2.9563078e-24)
(11.365274 0.00010205936 -3.0081061e-24)
(11.344967 0.00011185566 1.752859e-24)
(11.323356 0.00012261168 1.4226576e-24)
(11.300351 0.00013439813 -4.2133746e-24)
(11.274429 0.00014806726 2.4859799e-24)
(11.248095 0.00016233669 1.5318646e-24)
(11.220137 0.00017786024 -1.157075e-24)
(11.190375 0.00019476812 8.5712741e-25)
(11.158701 0.00021316396 -3.1634309e-24)
(11.123642 0.00023398367 1.5528518e-24)
(11.086882 0.00025630675 -1.7309081e-24)
(11.048541 0.00028008023 1.9713156e-24)
(11.007804 0.00030584625 1.1597421e-24)
(10.964544 0.00033375985 3.735205e-25)
(10.917498 0.00036471701 1.0740868e-24)
(10.866827 0.00039878291 -1.3643222e-24)
(10.814849 0.00043445687 -4.6472232e-24)
(10.759758 0.00047303266 4.6351318e-24)
(10.701392 0.00051473006 6.7581569e-24)
(10.638892 0.00056030544 -2.9811527e-24)
(10.57002 0.00061162498 -9.9499181e-24)
(10.500372 0.00066466406 -1.8514703e-24)
(10.426701 0.00072194966 7.7017711e-24)
(10.348805 0.00078378664 1.6645415e-24)
(10.266432 0.00085058208 -1.4680194e-23)
(10.173942 0.00092731235 1.2187653e-23)
(10.081476 0.00100585 8.5173089e-24)
(9.9838083 0.0010906595 -9.7279884e-24)
(9.8806678 0.0011822232 -2.2349676e-24)
(9.7717661 0.0012812336 8.9572451e-24)
(9.6502724 0.001394394 3.5872552e-24)
(9.5273444 0.0015118634 -2.3473599e-23)
(9.3984319 0.0016381303 2.7955896e-23)
(9.2623266 0.0017748183 -3.4786523e-23)
(9.1186168 0.0019228669 2.2666563e-23)
(8.9587875 0.0020921795 -3.1267611e-24)
(8.7957245 0.0022701138 1.8269275e-24)
(8.6252432 0.0024613225 6.83937e-24)
(8.4449979 0.0026695704 2.8825245e-23)
(8.254334 0.002896608 -3.947341e-23)
(8.041679 0.0031584587 3.3913217e-23)
(7.823955 0.003436202 -1.3002935e-23)
(7.5956212 0.0037378845 3.975337e-23)
(7.3531591 0.0040696836 -1.2603336e-22)
(7.0953596 0.0044365463 1.0560559e-22)
(6.8045767 0.0048680926 5.2774539e-23)
(6.5068983 0.0053304147 -2.125982e-22)
(6.1909191 0.0058440811 1.1158051e-22)
(5.8519228 0.0064235294 -6.0960568e-23)
(5.4867628 0.0071398304 2.2564727e-22)
(17.883842 -7.8986393e-05 -1.0840428e-26)
(17.883836 4.5595345e-05 -2.1986463e-26)
(17.848526 0.00010964329 2.5563362e-25)
(17.797181 0.00014012299 -4.2537382e-25)
(17.741348 0.00015251433 -1.2904671e-25)
(17.685956 0.00015671382 3.3082345e-26)
(17.63306 0.00015658921 4.565711e-25)
(17.582252 0.0001545546 4.7624209e-25)
(17.536001 0.00015128172 -1.2263796e-24)
(17.493906 0.00014786796 6.4218458e-25)
(17.455002 0.00014468365 1.3445524e-25)
(17.419064 0.00014147398 -1.3533381e-25)
(17.38589 0.00013849507 -7.4183286e-25)
(17.355169 0.00013616968 1.6723761e-24)
(17.325621 0.00013434982 -1.036796e-24)
(17.299075 0.00013314319 2.2139133e-24)
(17.274394 0.00013246083 -2.6613611e-24)
(17.251208 0.00013257181 2.473333e-24)
(17.229303 0.00013355541 -4.0099352e-24)
(17.208499 0.00013539889 2.2467942e-24)
(17.188061 0.00013821838 -3.7803198e-25)
(17.168727 0.00014203845 2.7425494e-24)
(17.150427 0.00014682644 6.5435609e-25)
(17.132661 0.00015258233 -5.8331132e-24)
(17.115342 0.00015934637 3.0492915e-24)
(17.098382 0.00016724163 1.0504664e-24)
(17.081092 0.00017661588 -2.6522164e-24)
(17.064998 0.00018650674 4.6464631e-26)
(17.048472 0.00019784109 2.9788191e-24)
(17.031436 0.00021070749 -2.0059964e-25)
(17.013811 0.00022524763 1.7044399e-24)
(16.994839 0.00024228787 3.9737091e-24)
(16.975302 0.00026125276 -1.0406051e-23)
(16.955299 0.00028206659 -5.4311809e-26)
(16.934336 0.00030525139 5.5726018e-24)
(16.912319 0.00033096406 -6.1774633e-24)
(16.88877 0.00035991343 2.2920567e-24)
(16.863232 0.00039283956 6.8943549e-24)
(16.837307 0.00042781445 -1.072407e-23)
(16.809901 0.00046630051 7.6235652e-24)
(16.780902 0.00050854069 7.8820374e-24)
(16.750196 0.00055481502 -5.3275213e-25)
(16.715779 0.00060846736 -4.5314354e-24)
(16.680984 0.00066446318 -1.2602849e-23)
(16.644198 0.0007253703 2.2069504e-24)
(16.605191 0.00079171912 7.3998462e-24)
(16.563826 0.00086391077 -1.7650284e-23)
(16.518199 0.00094562352 1.2473737e-23)
(16.47051 0.0010332507 1.2343062e-23)
(16.42091 0.0011265968 -1.6106339e-23)
(16.368343 0.001227804 -1.0230642e-23)
(16.312648 0.0013374693 1.3109261e-23)
(16.252208 0.0014591901 3.5954421e-24)
(16.187246 0.0015931632 -2.1296353e-26)
(16.120728 0.0017335467 -1.6623838e-23)
(16.050335 0.0018854551 2.0966015e-23)
(15.975866 0.0020497701 2.1266879e-23)
(15.896227 0.0022294915 -4.9446213e-23)
(15.808576 0.0024320627 2.5288498e-24)
(15.720033 0.0026416069 4.1527236e-23)
(15.626463 0.0028681296 -2.5392677e-23)
(15.527606 0.0031129627 -7.035268e-24)
(15.423141 0.0033777237 1.2571606e-23)
(15.305921 0.0036823066 3.9907549e-24)
(15.188797 0.0039944844 -6.0202003e-23)
(15.065135 0.0043321234 6.7975684e-23)
(14.934585 0.0046973444 -8.7479621e-23)
(14.796777 0.0050927336 1.0531542e-22)
(14.643059 0.0055457232 -9.1569198e-23)
(14.487536 0.0060169724 1.505362e-22)
(14.324437 0.0065246733 -1.9311121e-22)
(14.152216 0.0070756252 8.9572581e-23)
(13.970334 0.0076739656 -1.2606777e-22)
(13.767984 0.0083603051 1.6400425e-22)
(13.561448 0.0090838421 1.8800315e-22)
(13.345397 0.0098646468 -1.4606336e-22)
(13.116822 0.010717957 9.3348747e-23)
(12.874849 0.011652112 -2.6476212e-22)
(12.604703 0.012734551 3.4784439e-22)
(12.327793 0.013888922 -3.1710421e-22)
(12.037011 0.015149974 1.709665e-22)
(11.727775 0.016546687 -2.3889503e-22)
(11.398414 0.018100331 -2.1187885e-22)
(11.026119 0.019943742 1.7540659e-22)
(10.644021 0.021937812 -1.3179445e-22)
(10.23728 0.024176574 3.2162442e-22)
(9.799485 0.026730247 -1.636299e-22)
(9.3262317 0.029800601 3.9432748e-22)
(19.630429 -0.00015424211 1.7502296e-25)
(19.629745 9.1250576e-05 3.6083639e-26)
(19.590713 0.00021799575 -1.3238249e-25)
(19.534345 0.0002789572 1.8862434e-25)
(19.473127 0.00030437377 -3.8515766e-25)
(19.412406 0.00031367276 -2.7773255e-24)
(19.354407 0.00031442648 1.2201548e-24)
(19.298673 0.00031139304 4.2859803e-24)
(19.247905 0.00030586349 -1.3859654e-24)
(19.201665 0.00029997417 3.9287569e-25)
(19.158905 0.0002944851 -2.8541974e-24)
(19.119376 0.00028888233 4.0398186e-24)
(19.08286 0.0002836985 -5.4210375e-24)
(19.049026 0.00027976791 7.9925651e-25)
(19.016466 0.00027674345 5.9994921e-24)
(18.9872 0.00027487906 -9.95933e-25)
(18.959983 0.00027398893 -3.0246817e-24)
(18.934411 0.00027462677 2.4379742e-24)
(18.910253 0.00027692248 -1.840396e-24)
(18.887314 0.00028084647 6.4948888e-25)
(18.864788 0.00028665476 2.2815966e-24)
(18.843492 0.00029438566 -9.8563898e-24)
(18.823352 0.00030396116 -2.6375209e-24)
(18.803817 0.00031538686 1.6027212e-23)
(18.784792 0.00032875785 1.3079507e-24)
(18.766182 0.00034431207 -3.8482101e-24)
(18.747236 0.00036271884 1.8072872e-24)
(18.729621 0.0003820937 -1.3712504e-23)
(18.711557 0.00040426952 -6.0034842e-24)
(18.692959 0.00042940112 6.4022419e-24)
(18.673744 0.00045777868 -5.0013349e-24)
(18.653087 0.00049100415 3.0244108e-24)
(18.631846 0.00052795896 -9.8377518e-25)
(18.610127 0.00056847884 2.2912267e-23)
(18.587394 0.00061358584 -1.036724e-23)
(18.563546 0.00066361286 -1.8556242e-23)
(18.538072 0.00071988824 2.4589614e-23)
(18.510477 0.00078387795 -1.6887386e-23)
(18.482495 0.00085182713 -4.652783e-24)
(18.452945 0.00092657146 -2.4464677e-23)
(18.421707 0.001008587 7.9596594e-23)
(18.388661 0.0010984172 -2.9256144e-23)
(18.351655 0.0012025479 -4.1745602e-23)
(18.314274 0.0013112043 3.5464336e-23)
(18.274786 0.0014293683 4.0342371e-23)
(18.232941 0.0015580749 -4.027249e-23)
(18.188599 0.0016980969 -1.1907645e-23)
(18.13972 0.0018565645 -2.2167977e-24)
(18.088666 0.0020264788 -9.025878e-24)
(18.035597 0.0022074624 2.6161311e-23)
(17.979384 0.002403673 -4.0094509e-23)
(17.919859 0.0026162523 2.869491e-23)
(17.855296 0.0028522006 8.1489041e-23)
(17.785939 0.0031118568 -1.0415833e-22)
(17.714955 0.0033839164 5.0671119e-23)
(17.639872 0.0036782938 -8.0611673e-23)
(17.560477 0.0039966966 6.7800365e-23)
(17.475608 0.0043449302 -1.3168289e-23)
(17.382246 0.0047374289 6.7458988e-23)
(17.287978 0.0051434158 -3.9369607e-23)
(17.1884 0.0055822814 3.2866804e-23)
(17.08324 0.0060566326 -4.3316978e-23)
(16.972163 0.006569583 -2.6939286e-23)
(16.847581 0.0071597012 2.1167282e-23)
(16.723158 0.0077645266 -4.2656261e-23)
(16.591847 0.0084187161 2.2263436e-23)
(16.453283 0.0091264245 -8.531583e-23)
(16.307081 0.0098925168 9.1915643e-23)
(16.144078 0.010770383 -1.1520501e-22)
(15.979243 0.011683708 -4.8049064e-23)
(15.806461 0.012667791 1.6918501e-22)
(15.624105 0.013735856 -2.6106501e-22)
(15.431617 0.014895983 4.6807834e-22)
(15.217584 0.016226977 -1.0795128e-22)
(14.999249 0.017630336 1.3014072e-23)
(14.770987 0.019145427 -4.78144e-22)
(14.529636 0.020801545 5.750487e-22)
(14.274294 0.022615177 -4.1485675e-22)
(13.989419 0.024717511 2.0752409e-22)
(13.697627 0.026960646 1.5644459e-22)
(13.391445 0.029412433 -7.5046715e-23)
(13.066085 0.032130151 -1.975887e-22)
(12.71984 0.035154855 -6.7568993e-22)
(12.32883 0.03874732 9.6178627e-22)
(11.927941 0.042637892 5.9971188e-23)
(11.501651 0.047011484 3.0307588e-22)
(11.043351 0.052005825 -3.4262838e-22)
(10.548658 0.057927793 1.6974904e-22)
(20.859616 -0.00024376947 -3.0594787e-25)
(20.857169 0.00015035432 7.1564526e-25)
(20.814432 0.00035408918 -1.2585145e-24)
(20.753722 0.00045237611 1.4461389e-24)
(20.688069 0.00049373889 1.2040325e-24)
(20.623072 0.00050924517 1.353528e-24)
(20.561053 0.00051103569 -1.3227163e-25)
(20.501494 0.00050673817 1.9381319e-24)
(20.447259 0.00049843752 -2.0737274e-24)
(20.397866 0.00048949113 -1.3604763e-23)
(20.352197 0.00048116821 1.0429659e-23)
(20.30998 0.00047263879 -3.6574369e-24)
(20.270979 0.00046474782 4.9445526e-24)
(20.234843 0.00045884279 2.0130469e-24)
(20.200073 0.0004543366 -1.5544338e-23)
(20.168824 0.00045166226 2.8063995e-23)
(20.139765 0.00045051044 -1.0151628e-23)
(20.11247 0.00045176964 -1.2744034e-23)
(20.086694 0.00045564032 4.0756039e-24)
(20.062232 0.00046207483 9.7945417e-24)
(20.038224 0.0004714994 -6.0760443e-24)
(20.015543 0.00048395776 -1.6852335e-24)
(19.994111 0.00049932432 -2.6145492e-23)
(19.973341 0.00051761626 1.8329915e-23)
(19.953132 0.0005389848 3.7438134e-23)
(19.933384 0.00056380433 -8.8043862e-24)
(19.9133 0.00059314413 -6.7849807e-24)
(19.894649 0.00062400133 -1.1010663e-23)
(19.875541 0.00065929496 5.1278077e-24)
(19.855889 0.00069927721 4.3596508e-24)
(19.835605 0.0007444036 -1.5195128e-23)
(19.813823 0.00079721432 -4.6624988e-23)
(19.791451 0.00085594326 6.3153946e-23)
(19.768597 0.00092030972 -2.9027033e-23)
(19.744701 0.00099194423 7.3298843e-23)
(19.719657 0.0010713864 -1.0861267e-23)
(19.692928 0.0011607225 -2.6501818e-23)
(19.664002 0.001262296 -5.5660777e-23)
(19.634694 0.0013701187 -9.9896055e-25)
(19.603768 0.0014887064 1.5807638e-23)
(19.5711 0.0016188126 9.0306069e-23)
(19.536565 0.0017612956 -3.3290792e-23)
(19.497918 0.0019264358 -5.4032085e-23)
(19.458906 0.0020987267 -5.9636843e-23)
(19.417718 0.0022860644 1.6210338e-22)
(19.374097 0.0024900908 -2.6088335e-22)
(19.327897 0.0027120252 1.7191807e-22)
(19.276995 0.0029631599 -9.5248776e-23)
(19.223856 0.0032323932 8.2230741e-23)
(19.168645 0.0035191257 5.6881984e-23)
(19.110189 0.0038299433 1.8737459e-23)
(19.048314 0.0041666376 -5.5544832e-23)
(18.98123 0.0045403031 -1.4751692e-22)
(18.909196 0.0049514345 1.8895681e-22)
(18.835502 0.0053821359 1.0206467e-22)
(18.757581 0.0058480955 -3.1485936e-22)
(18.675217 0.006352008 8.9789907e-23)
(18.587206 0.0069030437 1.5786636e-22)
(18.490426 0.0075240251 -1.4536594e-22)
(18.392744 0.0081662355 2.763347e-22)
(18.289597 0.0088603437 5.7270138e-23)
(18.180708 0.0096104692 9.8123053e-24)
(18.065733 0.010421498 -7.0825239e-22)
(17.93683 0.011354386 4.8256782e-22)
(17.808141 0.012310345 -2.4446507e-22)
(17.672378 0.013344169 -1.935658e-22)
(17.52917 0.01446242 8.8531169e-22)
(17.378125 0.015672635 -1.7025282e-22)
(17.209792 0.017059249 -6.0824143e-23)
(17.039639 0.018501601 -2.0708016e-22)
(16.861355 0.020055424 -1.9916133e-22)
(16.67327 0.021741567 2.7940887e-22)
(16.474818 0.023572742 -5.0048874e-22)
(16.254256 0.025673215 3.4613766e-22)
(16.02937 0.027887394 3.6542171e-22)
(15.794371 0.030277612 -1.0219317e-21)
(15.546019 0.032889736 -1.8857521e-22)
(15.283403 0.03574977 2.3591112e-21)
(14.990579 0.039064396 -7.1199999e-22)
(14.690826 0.042600312 3.530209e-23)
(14.376484 0.046464438 -4.9077192e-22)
(14.042664 0.050747261 7.8527396e-22)
(13.687655 0.055512699 -1.3518273e-21)
(13.287056 0.061172004 1.2446913e-21)
(12.876681 0.067300226 -1.9163595e-21)
(12.440678 0.074188559 1.4342968e-21)
(11.97238 0.082051842 1.516841e-21)
(11.46747 0.091296982 9.7637775e-22)
(21.852425 -0.00034312854 7.9114114e-25)
(21.846679 0.00022757506 -2.6748924e-24)
(21.799519 0.00052260016 5.6534693e-25)
(21.734297 0.0006648259 -1.6468185e-24)
(21.664283 0.00072486191 9.7688655e-24)
(21.595204 0.00074747089 -2.6571807e-25)
(21.529419 0.00075023623 3.5475074e-25)
(21.466333 0.00074420431 -1.1674907e-23)
(21.408935 0.00073243959 4.0459721e-24)
(21.356692 0.00071968755 5.5268818e-25)
(21.308414 0.00070785483 4.3888931e-24)
(21.263804 0.00069573718 9.7967336e-24)
(21.222603 0.00068452013 -2.9285035e-23)
(21.184443 0.00067616635 2.7546326e-23)
(21.147738 0.00066980851 -2.9905074e-23)
(21.114764 0.00066609442 2.1890274e-23)
(21.084112 0.00066456083 -8.9820263e-24)
(21.055333 0.00066647896 2.5809984e-23)
(21.028172 0.00067213892 -3.4717531e-23)
(21.002413 0.00068147437 7.9982243e-23)
(20.977151 0.00069511232 -2.4163866e-23)
(20.953306 0.00071309421 -6.2648243e-23)
(20.930796 0.00073524282 9.9017677e-24)
(20.909003 0.00076159402 1.232687e-23)
(20.887818 0.00079235523 -2.037036e-24)
(20.867139 0.00082805655 2.1417114e-23)
(20.846134 0.00087024871 2.9015227e-23)
(20.826648 0.00091461346 -8.6727352e-23)
(20.806706 0.00096533406 3.8482098e-23)
(20.786219 0.0010227926 1.3442495e-23)
(20.765095 0.0010876306 -2.6352585e-23)
(20.742437 0.0011634886 2.9933262e-24)
(20.71919 0.0012478471 1.9549889e-23)
(20.695468 0.0013402825 -2.8121179e-23)
(20.670688 0.0014431421 -1.115827e-23)
(20.644741 0.0015572053 5.7324752e-23)
(20.617076 0.0016854538 -2.6126595e-24)
(20.587162 0.0018312668 -1.0881373e-22)
(20.55688 0.0019860083 1.7623793e-24)
(20.52495 0.002156181 2.6060863e-24)
(20.491247 0.0023428656 -1.6898939e-23)
(20.455642 0.0025472864 1.583164e-22)