/*--------------------------------*- C++ -*----------------------------------*\
| =========                 |                                                 |
| \\      /  F ield         | OpenFOAM: The Open Source CFD Toolbox           |
|  \\    /   O peration     | Version:  2406                                  |
|   \\  /    A nd           | Website:  www.openfoam.com                      |
|    \\/     M anipulation  |                                                 |
\*---------------------------------------------------------------------------*/
FoamFile
{
    version     2.0;
    format      ascii;
    arch        "LSB;label=32;scalar=64";
    class       volVectorField;
    location    "0";
    object      wallShearStress;
}
// * * * * * * * * * * * * * * * * * * * * * * * * * * * * * * * * * * * * * //

dimensions      [0 2 -2 0 0 0 0];

internalField   uniform (0 0 0);

boundaryField
{
    inlet
    {
        type            calculated;
        value           uniform (0 0 0);
    }
    topWall
    {
        type            symmetry;
    }
    jet
    {
        type            calculated;
        value           uniform (0 0 0);
    }
    outlet
    {
        type            calculated;
        value           uniform (0 0 0);
    }
    bottomWall
    {
        type            calculated;
        value           nonuniform List<vector> 
212
(
(-0.050564211 1.4241655e-06 0)
(-0.095979922 9.3620593e-06 0)
(-0.19535595 1.1679189e-05 0)
(-0.3230995 1.1366665e-05 0)
(-0.46388606 1.0856573e-05 0)
(-0.63841688 9.9144687e-06 0)
(-0.82715035 8.5287428e-06 0)
(-1.0110873 6.8606987e-06 0)
(-1.1901541 4.814605e-06 0)
(-1.3322529 2.7468384e-06 0)
(-1.4174236 1.3275256e-06 0)
(-1.4626511 4.838137e-07 0)
(-1.4777584 4.1464014e-08 2.6661209e-26)
(-1.4780066 -1.8002808e-07 -1.2455959e-26)
(-1.4736674 -3.2445075e-07 -1.7040518e-26)
(-1.4673892 -4.2032275e-07 -6.1241766e-26)
(-1.4607167 -4.9144528e-07 1.105556e-25)
(-1.454282 -5.4310832e-07 -1.4105358e-25)
(-1.4483287 -5.9071561e-07 9.8974672e-26)
(-1.4428055 -6.2907242e-07 0)
(-1.4379578 -6.6186455e-07 -8.2737342e-26)
(-1.4337071 -6.8869691e-07 2.2814075e-25)
(-1.429917 -7.0812179e-07 -1.4920454e-25)
(-1.426542 -7.2976707e-07 2.7652679e-25)
(-1.4235389 -7.4025403e-07 -3.6984498e-25)
(-1.4208544 -7.3767346e-07 7.991302e-26)
(-1.4183591 -7.4019502e-07 0)
(-1.4161871 -7.2748823e-07 0)
(-1.4142215 -7.089795e-07 0)
(-1.4124159 -6.706313e-07 -3.5063198e-25)
(-1.4107377 -6.1691226e-07 -9.9824616e-26)
(-1.4091607 -5.5121936e-07 5.0527421e-25)
(-1.4076162 -4.6145001e-07 0)
(-1.4061503 -3.4144068e-07 0)
(-1.4047495 -1.8911602e-07 0)
(-1.4033687 -1.5348611e-08 0)
(-1.4019966 1.895832e-07 3.4234287e-25)
(-1.400621 4.2919931e-07 -3.6510466e-25)
(-1.3991812 7.0611843e-07 3.953965e-25)
(-1.397803 9.9864294e-07 -4.0596636e-25)
(-1.3963485 1.3372433e-06 0)
(-1.3948058 1.7191378e-06 0)
(-1.3931631 2.1482837e-06 -2.2569438e-24)
(-1.3913432 2.6522248e-06 2.3172827e-24)
(-1.3894133 3.2173266e-06 0)
(-1.3873818 3.837709e-06 0)
(-1.3851977 4.5287659e-06 0)
(-1.382848 5.3026908e-06 -4.0153049e-25)
(-1.3802764 6.1751802e-06 2.6103206e-25)
(-1.3774221 7.170763e-06 2.5617604e-24)
(-1.3744649 8.2286659e-06 -2.4708216e-24)
(-1.3712816 9.3981001e-06 0)
(-1.3678559 1.068344e-05 0)
(-1.3641723 1.2093631e-05 0)
(-1.3599816 1.3729718e-05 0)
(-1.355687 1.5437309e-05 0)
(-1.3510943 1.729439e-05 0)
(-1.3461734 1.9318344e-05 0)
(-1.3409062 2.1518381e-05 0)
(-1.3350455 2.4004159e-05 0)
(-1.3288714 2.6663007e-05 0)
(-1.3224068 2.9488522e-05 0)
(-1.3155162 3.2542541e-05 0)
(-1.3081791 3.58368e-05 0)
(-1.3001816 3.9481862e-05 0)
(-1.2915525 4.3467789e-05 0)
(-1.2826891 4.7618907e-05 0)
(-1.273287 5.2080953e-05 0)
(-1.2633222 5.6876092e-05 -7.2577976e-24)
(-1.2526511 6.2074845e-05 7.451832e-24)
(-1.2408967 6.7881465e-05 5.4623147e-24)
(-1.2290197 7.382912e-05 -3.7884907e-24)
(-1.2164714 8.0190855e-05 4.9283066e-24)
(-1.2032236 8.6992309e-05 -4.6180332e-24)
(-1.1892408 9.4260979e-05 -1.5173565e-23)
(-1.1735789 0.00010251428 1.3090832e-23)
(-1.157966 0.00011083818 9.0094832e-24)
(-1.1415255 0.00011970965 -1.5839768e-23)
(-1.1242241 0.00012916509 6.7655842e-24)
(-1.1060264 0.00013921027 1.789307e-23)
(-1.0858169 0.00015051008 -1.5128322e-23)
(-1.0654728 0.00016201387 -3.3298274e-24)
(-1.0442506 0.00017413962 0)
(-1.0219716 0.0001870032 -5.6404568e-24)
(-0.99859284 0.00020063573 -1.8411182e-23)
(-0.97277591 0.00021583588 4.7514148e-23)
(-0.94664268 0.00023135022 -1.3060314e-23)
(-0.91954046 0.00024762485 -2.7553648e-23)
(-0.8911313 0.00026479365 1.7526781e-23)
(-0.86135687 0.00028291425 -1.3946884e-24)
(-0.8284988 0.00030304413 -4.5685699e-24)
(-0.79524964 0.00032353035 -8.2998457e-24)
(-0.76079769 0.00034484543 1.484752e-23)
(-0.72468203 0.00036731837 -1.0896307e-23)
(-0.68681239 0.00039079063 5.7898248e-23)
(-0.64478416 0.00041685815 -5.7100795e-23)
(-0.60252802 0.00044289214 -4.708091e-23)
(-0.55850541 0.0004697684 -2.3403494e-24)
(-0.51222274 0.00049767282 6.1929965e-23)
(-0.46342922 0.0005262488 6.8748559e-23)
(-0.41993173 0.00053631374 -1.3178557e-22)
(-0.39104418 0.00051762982 -9.1177758e-23)
(-0.36051061 0.00050293603 2.3139201e-22)
(-0.32490196 0.00048478659 -1.4021431e-22)
(-0.29204005 0.00046681762 0)
(-0.25806267 0.00044714191 0)
(-0.21832495 0.00042231348 0)
(-0.18158867 0.00039754183 0)
(-0.14411899 0.00036895 0)
(-0.099148453 0.0003369776 -5.4304204e-23)
(-0.05677374 0.000301098 5.430466e-23)
(-0.0060770114 0.0002757742 0)
(0.6953909 -0.0006933475 0)
(0.69873787 -0.00076977353 0)
(0.69580521 -0.00080232792 0)
(0.68931597 -0.00082545428 0)
(0.68150466 -0.00083954507 0)
(0.67202651 -0.00085083438 0)
(0.66009386 -0.00085989368 0)
(0.64775076 -0.0008654938 0)
(0.63377664 -0.00086870922 0)
(0.61669366 -0.00086914179 0)
(0.59931885 -0.00086709047 0)
(0.58037772 -0.00086191276 0)
(0.55828347 -0.00085216405 0)
(0.53716032 -0.00083954208 4.0986016e-23)
(0.51548771 -0.00082409417 -4.0254697e-23)
(0.49337178 -0.00080613646 0)
(0.47074387 -0.00078598364 0)
(0.44638343 -0.00076216912 0)
(0.42304652 -0.00073722247 0)
(0.39942137 -0.00071043716 0)
(0.37557599 -0.00068180551 0)
(0.3514463 -0.00065168845 0)
(0.32564366 -0.00061846149 0)
(0.30108101 -0.00058593486 0)
(0.27634596 -0.00055279685 0)
(0.25148856 -0.0005189785 0)
(0.22659325 -0.00048477239 0)
(0.20022551 -0.00044857308 0)
(0.17531067 -0.000414547 0)
(0.15056051 -0.00038107752 0)
(0.12599059 -0.00034817352 0)
(0.10167738 -0.00031609849 0)
(0.07639633 -0.00028328363 0)
(0.052581656 -0.00025319484 0)
(0.029355945 -0.0002246646 -9.1257514e-24)
(0.0065611853 -0.00019736045 8.9628913e-24)
(-0.015750537 -0.00017137295 0)
(-0.038500946 -0.00014633842 0)
(-0.060013342 -0.00012330874 6.6986358e-24)
(-0.080599952 -0.00010222167 -6.5790475e-24)
(-0.1005932 -8.2716208e-05 0)
(-0.12000725 -6.4781348e-05 0)
(-0.13950491 -4.7506211e-05 1.8669356e-23)
(-0.15828801 -3.201993e-05 -1.8336108e-23)
(-0.17619513 -1.8388002e-05 0)
(-0.19386775 -6.2396254e-06 0)
(-0.21153428 4.4555568e-06 0)
(-0.22984612 1.4573811e-05 0)
(-0.24912652 2.3512687e-05 0)
(-0.26842928 3.0609894e-05 0)
(-0.28814359 3.627592e-05 0)
(-0.30805336 4.1114071e-05 0)
(-0.32817119 4.5036141e-05 0)
(-0.34903356 4.83167e-05 0)
(-0.36876245 5.0932359e-05 0)
(-0.38833276 5.2987495e-05 0)
(-0.40770687 5.4489867e-05 0)
(-0.42683656 5.5435008e-05 0)
(-0.44667581 5.5845504e-05 -1.0810581e-23)
(-0.46533301 5.5802723e-05 1.0617617e-23)
(-0.48359728 5.548535e-05 0)
(-0.50155274 5.4856134e-05 0)
(-0.51917719 5.3919931e-05 -3.7043612e-25)
(-0.53707519 5.2659327e-05 -2.4188877e-25)
(-0.55436928 5.1258655e-05 5.9489948e-25)
(-0.5709466 4.9737789e-05 0)
(-0.5871683 4.8087566e-05 -2.9142677e-24)
(-0.60302194 4.6321679e-05 2.3674433e-24)
(-0.61880204 4.447019e-05 2.5314065e-25)
(-0.63451681 4.2550278e-05 -3.2801497e-24)
(-0.64926213 4.0672728e-05 3.4461964e-24)
(-0.66363738 3.8768183e-05 0)
(-0.67765753 3.6923621e-05 0)
(-0.69133451 3.5117648e-05 0)
(-0.70840761 3.2537227e-05 0)
(-0.72717905 2.9717568e-05 0)
(-0.74639347 2.6967876e-05 0)
(-0.76596561 2.424764e-05 2.1583196e-25)
(-0.78575555 2.1542362e-05 -2.3346706e-25)
(-0.80641944 1.8815155e-05 -6.0104944e-26)
(-0.82655018 1.6238307e-05 8.5280512e-26)
(-0.84620768 1.3826399e-05 0)
(-0.86554381 1.1592062e-05 0)
(-0.88444551 9.5604961e-06 2.3047182e-25)
(-0.90280545 7.7516583e-06 -2.1019291e-25)
(-0.92096549 6.1767479e-06 0)
(-0.93828228 4.8761965e-06 -3.627924e-26)
(-0.95447019 3.8112433e-06 3.3087128e-26)
(-0.96981864 2.936365e-06 0)
(-0.98429963 2.2219306e-06 0)
(-0.99790789 1.6995162e-06 0)
(-1.0106534 1.2900199e-06 2.5748575e-27)
(-1.0228384 9.9456582e-07 9.7270768e-28)
(-1.0341464 7.774052e-07 -3.0288041e-27)
(-1.0445771 6.3215784e-07 0)
(-1.0544487 5.4963738e-07 0)
(-1.0638943 4.5375626e-07 -4.7137037e-27)
(-1.0731039 3.4277206e-07 4.2989501e-27)
(-1.0824672 3.0042295e-07 0)
(-1.0929058 2.04524e-07 0)
)
;
    }
    hump
    {
        type            calculated;
        value           nonuniform List<vector> 
206
(
(-1.5367188 -0.94736564 2.7514966e-17)
(-1.8109226 -1.0803132 -5.2034462e-17)
(-2.0879963 -1.1931468 -3.6835163e-17)
(-2.3118754 -1.1952847 -3.332859e-17)
(-2.4284516 -1.1531773 -8.0467875e-17)
(-2.5527 -1.1451357 -4.1097953e-17)
(-2.696433 -1.1375052 6.8623361e-17)
(-2.8464946 -1.1436354 -5.9406436e-17)
(-3.0020954 -1.1890896 -3.0510598e-17)
(-2.9147407 -1.0879904 2.7405929e-24)
(-3.0356249 -1.0511022 -5.1599897e-17)
(-3.0707285 -0.9846791 -9.0659348e-17)
(-3.1148754 -0.92895165 -3.8068314e-22)
(-3.144766 -0.86847239 -5.7384702e-22)
(-3.1554638 -0.80716348 7.3568678e-17)
(-3.158352 -0.74916037 1.6969151e-16)
(-3.1594826 -0.69746658 9.3132899e-17)
(-3.1634144 -0.65077438 -7.7614267e-17)
(-3.1678976 -0.60712359 -9.2885576e-17)
(-3.1727724 -0.56610969 -7.5952236e-17)
(-3.1802756 -0.52813565 -2.0039446e-17)
(-3.202018 -0.49648628 5.0034431e-17)
(-3.2351176 -0.46354563 -1.0883343e-16)
(-3.2576587 -0.42634021 -3.3237855e-17)
(-3.2768768 -0.38774957 -9.617095e-17)
(-3.293321 -0.34812364 -8.4076279e-17)
(-3.3044096 -0.30229835 -3.6457098e-17)
(-3.310857 -0.25350054 -5.1216194e-19)
(-3.3133617 -0.20687941 1.2101517e-17)
(-3.3064895 -0.16319351 2.0432674e-17)
(-3.2979388 -0.11914332 -9.3545068e-18)
(-3.2715318 -0.07799724 -6.9685153e-18)
(-3.2523006 -0.041030096 -1.9551587e-18)
(-3.2301626 -0.0050118919 1.0565258e-18)
(-3.1989146 0.029897352 -8.3225457e-19)
(-3.1698026 0.060743324 5.1810355e-19)
(-3.1455783 0.091281638 -4.5789456e-18)
(-3.101722 0.12165681 -4.2887238e-18)
(-3.0659667 0.14773914 -4.0019867e-18)
(-3.0372798 0.17382435 1.070265e-17)
(-2.9907289 0.2007655 1.3937783e-22)
(-2.9350005 0.22518562 -3.1176349e-18)
(-2.8807648 0.24684882 -4.5133203e-18)
(-2.8265448 0.26651933 -1.077278e-22)
(-2.7716375 0.2844505 4.0493794e-18)
(-2.7160957 0.30078257 2.4184531e-17)
(-2.6607813 0.31560885 5.7885554e-18)
(-2.6079005 0.32928263 -1.6931439e-17)
(-2.5550573 0.34253213 -1.1452294e-17)
(-2.4947338 0.35499517 -6.3280063e-38)
(-2.4265177 0.36599532 2.2437086e-34)
(-2.3491465 0.37456966 1.0797023e-18)
(-2.2684269 0.38025364 -1.5386301e-18)
(-2.1894101 0.38357241 -7.2284311e-18)
(-2.1166106 0.38537814 8.1357517e-18)
(-2.0497765 0.38576738 -1.4363535e-17)
(-1.9957665 0.38681964 -2.9131123e-18)
(-1.9503765 0.38963543 -1.5786953e-18)
(-1.8883512 0.39153223 -9.1003513e-18)
(-1.8033433 0.39087814 -4.7205318e-18)
(-1.6898705 0.38453818 3.6408514e-18)
(-1.5605994 0.37248211 -8.2115267e-18)
(-1.4088946 0.35269433 -7.887929e-18)
(-1.2073919 0.31775612 -4.2611773e-22)
(-0.96037297 0.26430395 -3.7945271e-18)
(-0.76104225 0.20778217 7.8614896e-18)
(0.18640159 -0.041708795 -1.6993999e-18)
(0.44375038 -0.17333606 -1.1897715e-17)
(0.46051573 -0.18711659 9.3865181e-18)
(0.49541444 -0.20892356 9.0361975e-18)
(0.48476392 -0.21393523 -5.6333265e-18)
(0.47912117 -0.22098519 -8.4169684e-18)
(0.46894508 -0.2263742 -1.1694808e-17)
(0.44235509 -0.22432645 -1.4285978e-18)
(0.41451122 -0.22033898 -6.5794161e-18)
(0.38091851 -0.21154636 7.0494512e-18)
(0.34930469 -0.20198836 9.3797498e-18)
(0.31863288 -0.19119993 2.1118076e-18)
(0.29062076 -0.18013138 -2.5880476e-18)
(0.26551282 -0.16977183 -1.5468199e-19)
(0.24008726 -0.15856795 -7.8816503e-18)
(0.21980798 -0.14861759 3.934599e-22)
(0.20234726 -0.14016156 -8.1226593e-18)
(0.18620942 -0.13193214 -1.7863405e-17)
(0.17243022 -0.12469703 8.6784145e-18)
(0.15982833 -0.1181005 1.6442811e-17)
(0.14807234 -0.11153789 3.530558e-18)
(0.13922541 -0.10666056 4.6464628e-18)
(0.13092445 -0.1019291 -2.5597837e-17)
(0.12381179 -0.097742504 7.388542e-19)
(0.11679129 -0.093432191 2.6648369e-18)
(0.10995282 -0.089019425 1.6046487e-17)
(0.10406725 -0.08521803 5.0687533e-18)
(0.098139105 -0.080946533 -4.4298231e-19)
(0.092976601 -0.077345956 4.9280222e-18)
(0.087141217 -0.072918278 -1.2615489e-17)
(0.081523362 -0.06854781 2.7874609e-18)
(0.07684399 -0.064879903 9.5309476e-18)
(0.072524023 -0.061476632 7.9124979e-18)
(0.06832457 -0.05809359 2.4866211e-17)
(0.064555229 -0.055050677 4.1534426e-18)
(0.060535091 -0.051767243 1.0552335e-17)
(0.05686645 -0.048619591 2.6141304e-22)
(0.053492921 -0.045699729 1.7214251e-17)
(0.049706313 -0.042328101 5.316793e-18)
(0.046165617 -0.039068064 1.967291e-17)
(0.043293696 -0.036453322 -3.5813935e-18)
(0.041129823 -0.034437699 5.7751767e-18)
(0.039324042 -0.032816035 -9.7991799e-18)
(0.038010754 -0.031562858 1.0330673e-18)
(0.037116562 -0.030805323 8.5816674e-18)
(0.036603743 -0.030322697 -1.3096394e-17)
(0.036333026 -0.030056717 -6.970615e-18)
(0.036713822 -0.030354167 -1.674159e-17)
(0.036637529 -0.030235423 1.6449666e-17)
(0.036806978 -0.03024978 -1.2696396e-17)
(0.037303102 -0.030494764 -6.5606839e-18)
(0.03813257 -0.03096628 2.9051118e-23)
(0.038655437 -0.031126166 7.9472133e-18)
(0.039783845 -0.031706858 -2.2089679e-18)
(0.040874915 -0.03225089 -4.0498235e-17)
(0.0424904 -0.033033102 -1.6571838e-18)
(0.044917968 -0.034490798 -8.6803652e-18)
(0.047200003 -0.035793066 -9.0601731e-18)
(0.050689663 -0.037940955 1.7475839e-17)
(0.054667697 -0.040350207 -5.1243031e-22)
(0.059327854 -0.043263431 -3.0057e-22)
(0.063316531 -0.045611002 -1.4430685e-17)
(0.068829166 -0.048886489 1.4283514e-17)
(0.07398606 -0.051788136 -6.8196712e-18)
(0.078705168 -0.054290912 -9.6681544e-18)
(0.083505984 -0.056647228 -3.3253786e-22)
(0.090054246 -0.059944727 1.1851607e-17)
(0.095291614 -0.062308805 -2.9595741e-18)
(0.10052 -0.064485283 3.3630544e-17)
(0.10693422 -0.067172058 2.0624789e-17)
(0.11365399 -0.069845576 1.3131372e-17)
(0.11987637 -0.072138421 6.6454523e-18)
(0.12644168 -0.074501844 -4.2712555e-18)
(0.13388351 -0.076788126 4.6978011e-18)
(0.14109572 -0.07912044 1.0243009e-17)
(0.14773498 -0.080871367 -1.3464803e-17)
(0.15507029 -0.082492052 -4.4218343e-18)
(0.16375596 -0.084786024 -1.1363619e-17)
(0.17007903 -0.085745659 6.6999831e-24)
(0.17861803 -0.087349733 1.8695637e-18)
(0.18695495 -0.088585797 -1.9056322e-19)
(0.1946136 -0.089532946 -1.5601071e-17)
(0.20290735 -0.090352064 8.6174766e-19)
(0.212219 -0.091171198 1.7958271e-17)
(0.2212199 -0.091832377 7.3744572e-18)
(0.23262012 -0.092568555 3.4305885e-18)
(0.24325126 -0.093257332 -2.5305404e-17)
(0.2551618 -0.09412961 -2.4973233e-18)
(0.26752603 -0.094959909 7.2838895e-18)
(0.27767639 -0.095237452 -6.5110816e-18)
(0.28978106 -0.095322324 2.320491e-18)
(0.30061823 -0.0953268 9.7380386e-18)
(0.31043904 -0.094843956 1.0608181e-17)
(0.32278592 -0.095147794 1.5936509e-17)
(0.33539895 -0.095126124 3.4628605e-18)
(0.34730855 -0.095303808 1.0174789e-17)
(0.35909117 -0.095238266 1.4659048e-17)
(0.37000733 -0.095029165 1.3219934e-17)
(0.3809542 -0.094626746 3.1122164e-34)
(0.3920125 -0.094231267 7.4959079e-18)
(0.40305588 -0.093827428 6.9598155e-18)
(0.41384433 -0.093360553 4.5070318e-22)
(0.42458139 -0.092879914 4.5267844e-22)
(0.4351811 -0.092409772 7.105767e-18)
(0.44587093 -0.092013957 1.4936184e-17)
(0.45755598 -0.091954426 1.8231551e-18)
(0.46885418 -0.09198288 -1.5178403e-17)
(0.47890223 -0.091678152 -9.3792785e-18)
(0.48895367 -0.091369771 -5.477533e-18)
(0.49839949 -0.090965692 -1.0531884e-17)
(0.50794872 -0.090557634 -4.4312248e-18)
(0.51777303 -0.090308716 -1.5730917e-17)
(0.52601682 -0.089725526 -1.8969746e-17)
(0.53385015 -0.088946657 -2.7065455e-17)
(0.5427371 -0.088475398 -1.5949982e-18)
(0.5523547 -0.088273707 -1.4686625e-17)
(0.55977032 -0.087739685 1.6218411e-17)
(0.56733429 -0.086901092 2.1831454e-19)
(0.57720489 -0.086918864 -4.6331738e-22)
(0.58420866 -0.086494182 7.0866097e-18)
(0.59055217 -0.085763725 -4.8173948e-18)
(0.59916309 -0.085578619 -2.3470024e-18)
(0.60640134 -0.085323897 5.3598724e-18)
(0.61207443 -0.084629075 3.6828417e-18)
(0.61823351 -0.083957607 4.0170818e-18)
(0.62442474 -0.08335744 1.8837227e-18)
(0.62931764 -0.08246505 -8.4832109e-18)
(0.63387309 -0.081392475 -6.8059755e-18)
(0.63878056 -0.080373351 -8.9345121e-25)
(0.6434304 -0.079322397 -8.9432426e-24)
(0.64757109 -0.077958982 8.5552673e-18)
(0.65354931 -0.077082388 -6.6711758e-18)
(0.65826637 -0.076257716 -1.5315989e-17)
(0.66189509 -0.07498365 -5.9416499e-18)
(0.66547529 -0.073697035 -9.2711507e-18)
(0.74808303 -0.07326721 -1.3875323e-17)
(1.3744931 -0.076556373 -4.3888846e-18)
(1.3658192 -0.071823513 7.3512393e-18)
(1.2075418 -0.06857945 3.1187881e-20)
(1.3079165 -0.066938125 8.7290601e-18)
)
;
    }
    defaultFaces
    {
        type            empty;
    }
}


// ************************************************************************* //
