/*--------------------------------*- C++ -*----------------------------------*\
| =========                 |                                                 |
| \\      /  F ield         | OpenFOAM: The Open Source CFD Toolbox           |
|  \\    /   O peration     | Version:  2406                                  |
|   \\  /    A nd           | Website:  www.openfoam.com                      |
|    \\/     M anipulation  |                                                 |
\*---------------------------------------------------------------------------*/
FoamFile
{
    version     2.0;
    format      ascii;
    arch        "LSB;label=32;scalar=64";
    class       volScalarField;
    location    "0";
    object      yPlus;
}
// * * * * * * * * * * * * * * * * * * * * * * * * * * * * * * * * * * * * * //

dimensions      [0 0 0 0 0 0 0];

internalField   uniform 0;

boundaryField
{
    inlet
    {
        type            calculated;
        value           uniform 0;
    }
    topWall
    {
        type            symmetry;
    }
    jet
    {
        type            calculated;
        value           uniform 0;
    }
    outlet
    {
        type            calculated;
        value           uniform 0;
    }
    bottomWall
    {
        type            calculated;
        value           nonuniform List<scalar> 
212
(
0.073529935
0.10022872
0.14411477
0.18553087
0.22256911
0.26134245
0.29747457
0.32900084
0.35707324
0.37782472
0.38974284
0.3959252
0.39796625
0.39799967
0.39741494
0.39656743
0.39566478
0.39479238
0.39398351
0.39323159
0.39257042
0.39198975
0.39147129
0.39100903
0.39059726
0.39022879
0.38988599
0.38958736
0.38931689
0.38906829
0.38883709
0.38861968
0.38840666
0.38820437
0.38801095
0.3878202
0.38763056
0.38744037
0.38724117
0.38705041
0.38684897
0.38663522
0.38640748
0.38615502
0.38588709
0.38560488
0.38530124
0.38497431
0.38461619
0.3842183
0.38380564
0.3833609
0.38288176
0.38236588
0.38177811
0.38117482
0.38052859
0.37983497
0.37909117
0.37826181
0.37738609
0.37646698
0.37548487
0.3744363
0.37329003
0.37204917
0.37077026
0.36940883
0.36796049
0.36640322
0.36468
0.36293035
0.3610727
0.3591012
0.35700873
0.35465002
0.35228258
0.34977253
0.34711172
0.34429126
0.34113121
0.33791952
0.33453659
0.33094852
0.32714177
0.32288516
0.31851698
0.31392295
0.30903511
0.30382955
0.29797792
0.29193409
0.28553726
0.27867619
0.27129926
0.26286605
0.25409715
0.24462921
0.23426877
0.22283606
0.21213533
0.20469619
0.19654776
0.18658293
0.17687096
0.16627159
0.15291614
0.1393846
0.12419866
0.10298887
0.077328364
0.055154073
0.2729968
0.27365398
0.27307892
0.27180232
0.27025751
0.26837175
0.26597797
0.26347855
0.26062141
0.25708409
0.25343464
0.24939887
0.24460549
0.23993071
0.23503906
0.22994179
0.22460895
0.21871926
0.21292062
0.20688711
0.20061622
0.1940681
0.18680643
0.17961436
0.17207187
0.16414846
0.15581741
0.14646668
0.13703009
0.1269684
0.11613162
0.10432649
0.09039937
0.074847443
0.055456412
0.029235941
0.040073575
0.064040719
0.080056557
0.092838835
0.10376508
0.11337318
0.12225423
0.13022437
0.13739351
0.14412389
0.1505544
0.15694105
0.16338932
0.16959824
0.17571679
0.18168992
0.18753364
0.19340295
0.19879172
0.20399872
0.20902749
0.21387814
0.21879297
0.2233142
0.2276543
0.23184293
0.23588286
0.23991522
0.24374669
0.24736382
0.25085358
0.25421844
0.25752405
0.26077337
0.26378554
0.26668985
0.26949264
0.27219932
0.27553909
0.27916476
0.28282859
0.28651317
0.2901918
0.29398319
0.29762938
0.30114745
0.30456881
0.3078769
0.31105673
0.31417003
0.31710979
0.31983344
0.32239481
0.32479304
0.3270308
0.32911292
0.33109113
0.33291625
0.33459094
0.33616822
0.33767058
0.33912898
0.34060531
0.34224342
)
;
    }
    hump
    {
        type            calculated;
        value           nonuniform List<scalar> 
206
(
0.4165887
0.45514573
0.48783689
0.52128237
0.54925064
0.56127713
0.58773896
0.62209531
0.62312374
0.4954817
0.50482412
0.50677568
0.50926435
0.51066769
0.51046841
0.50961311
0.50852297
0.50765821
0.50686745
0.5061488
0.50567443
0.50639917
0.50810903
0.50913976
0.5101379
0.5111311
0.51196882
0.51275462
0.51354278
0.51381226
0.51426128
0.51343145
0.51320282
0.51287538
0.51191986
0.51107329
0.51069118
0.50880905
0.50743214
0.50666123
0.50451791
0.50151981
0.49850041
0.49537096
0.49206905
0.48860365
0.4850386
0.48157958
0.47805232
0.47377652
0.46865423
0.46249706
0.45576533
0.44893353
0.44247061
0.43637037
0.43144197
0.42737183
0.42151182
0.41304446
0.40102943
0.3865041
0.36832304
0.34200711
0.30530166
0.27266721
0.13171437
0.21312411
0.21745963
0.22625815
0.22449974
0.22382608
0.22208464
0.21634883
0.21002523
0.20186975
0.19377488
0.1855024
0.1775274
0.17003234
0.16201906
0.15527145
0.14921638
0.14336496
0.13817207
0.13323322
0.12843285
0.12470158
0.12108694
0.1179002
0.11465158
0.1113932
0.10849261
0.10547845
0.10278138
0.099615111
0.096469173
0.093759844
0.091184758
0.08860346
0.086226273
0.083596442
0.081111517
0.078751334
0.07599423
0.073326758
0.071083435
0.069361573
0.067896596
0.066836481
0.066127384
0.06574526
0.065578799
0.066006531
0.066020574
0.066247267
0.066764327
0.067580928
0.068115913
0.069164829
0.070172856
0.07161122
0.073688226
0.075596164
0.078394536
0.081480822
0.084944184
0.087819328
0.091625757
0.095066439
0.098114348
0.10111523
0.10506901
0.10813066
0.11109972
0.11463118
0.11821822
0.12143564
0.12474533
0.12837517
0.13179748
0.13485801
0.13814592
0.14193672
0.14461627
0.14813995
0.15148663
0.15448117
0.15763168
0.16108504
0.16432958
0.1683286
0.17196297
0.17593986
0.1799571
0.18316326
0.18687202
0.19012203
0.192969
0.1965506
0.20011338
0.20342839
0.2066323
0.20954196
0.21239866
0.21524182
0.2180396
0.22072992
0.22337015
0.22594621
0.22851911
0.23132757
0.23402614
0.23637254
0.23869549
0.24084984
0.24300507
0.24521876
0.24703338
0.24872251
0.25065713
0.25275998
0.25434836
0.25592451
0.25805744
0.25953677
0.26083671
0.26264889
0.26416573
0.26530886
0.2665443
0.26778788
0.268734
0.2695877
0.27051212
0.27137755
0.27211039
0.2732442
0.27413297
0.27475489
0.27536197
0.30666356
0.55145614
0.54923652
0.48637291
0.52538147
)
;
    }
    defaultFaces
    {
        type            empty;
    }
}


// ************************************************************************* //
