# Wall shear stress
# Time          	patch           	min             	max             
0               	bottomWall	(-6.41882943e+01 -2.12183693e+01 -5.71897697e-17)	(1.47737883e+01 4.40545792e+00 6.76650634e-17)
10              	bottomWall	(-1.05859889e+01 -1.51495302e+00 -5.62191160e-16)	(9.36362143e-01 3.27783035e+00 4.02161852e-16)
20              	bottomWall	(-1.07826524e+01 -9.54767091e-01 -2.79464841e-16)	(8.15719596e-01 3.31800523e+00 1.87200929e-16)
30              	bottomWall	(-1.06763176e+01 -1.01635488e+00 -2.68974709e-16)	(7.34375009e-01 3.27566457e+00 1.81242623e-16)
40              	bottomWall	(-1.06032657e+01 -1.07185613e+00 -2.75119813e-16)	(5.98858063e-01 3.25080169e+00 1.84930834e-16)
50              	bottomWall	(-1.05517475e+01 -1.09137181e+00 -2.70205184e-16)	(4.87942581e-01 3.23558346e+00 1.82566864e-16)
