/*--------------------------------*- C++ -*----------------------------------*\
| =========                 |                                                 |
| \\      /  F ield         | OpenFOAM: The Open Source CFD Toolbox           |
|  \\    /   O peration     | Version:  2406                                  |
|   \\  /    A nd           | Website:  www.openfoam.com                      |
|    \\/     M anipulation  |                                                 |
\*---------------------------------------------------------------------------*/
FoamFile
{
    version     2.0;
    format      ascii;
    arch        "LSB;label=32;scalar=64";
    class       volVectorField;
    location    "2406";
    object      force;
}
// * * * * * * * * * * * * * * * * * * * * * * * * * * * * * * * * * * * * * //

dimensions      [1 1 -2 0 0 0 0];

internalField   uniform (0 0 0);

boundaryField
{
    inlet
    {
        type            calculated;
        value           uniform (0 0 0);
    }
    topWall
    {
        type            symmetry;
    }
    jet
    {
        type            calculated;
        value           uniform (0 0 0);
    }
    outlet
    {
        type            calculated;
        value           uniform (0 0 0);
    }
    bottomWall
    {
        type            calculated;
        value           uniform (0 0 0);
    }
    hump
    {
        type            calculated;
        value           nonuniform List<vector> 
320
(
(0.014786718 -0.14132639 1.3824017e-20)
(0.022795728 -0.14414106 2.7520575e-20)
(0.032012874 -0.14951242 -3.0347371e-21)
(0.041718166 -0.15219642 6.0723946e-21)
(0.051893373 -0.15471014 5.3275876e-26)
(0.061474033 -0.15584437 1.1748226e-19)
(0.070280237 -0.1559874 -6.1139504e-20)
(0.077848014 -0.15486572 -5.2116865e-26)
(0.083500464 -0.15234822 -1.1661197e-19)
(0.086944404 -0.14823115 -2.3352372e-26)
(0.087948511 -0.14216437 1.0536302e-19)
(0.085475045 -0.13334625 5.8774718e-39)
(0.079332724 -0.12150759 7.7468584e-20)
(0.069939514 -0.10622384 -6.5793675e-20)
(0.056469832 -0.086125589 5.7246183e-20)
(0.04000493 -0.061425376 -3.9475244e-20)
(0.020614012 -0.030335559 3.1692401e-27)
(0.00039454785 0.0050983333 4.2377214e-22)
(-0.011944543 0.030881445 -3.2360249e-20)
(-0.023564458 0.058212929 -6.1483178e-28)
(-0.035646889 0.090021866 -6.7875411e-28)
(-0.045065556 0.11889555 1.0231892e-19)
(-0.054019487 0.14740422 -2.5821675e-19)
(-0.064395517 0.17914462 -2.3766022e-42)
(-0.079226781 0.23479454 -1.1437697e-26)
(-0.085095344 0.27241906 2.0260519e-19)
(-0.089837651 0.30745582 -2.7372108e-26)
(-0.093822464 0.34642693 5.0466134e-19)
(-0.095551199 0.38053629 2.9361568e-26)
(-0.096159295 0.41376269 2.9498554e-19)
(-0.095936844 0.44448513 -2.7593253e-19)
(-0.095535995 0.47551947 -3.3441211e-26)
(-0.094770427 0.5073001 -3.2616481e-19)
(-0.093611225 0.53929323 -2.6850495e-35)
(-0.09206975 0.57196536 3.1007403e-19)
(-0.090407811 0.60532951 -3.1746334e-19)
(-0.070523899 0.50592208 1.6235461e-19)
(-0.064930339 0.49956864 -1.8409924e-19)
(-0.059561764 0.49056696 -7.9842443e-26)
(-0.054382128 0.48219955 1.718684e-19)
(-0.049423031 0.47226114 8.7178932e-20)
(-0.044779652 0.462096 -9.8007632e-20)
(-0.040183298 0.45209624 -9.7709187e-21)
(-0.036029212 0.44030216 -8.7582866e-26)
(-0.032061607 0.42984817 -4.5713301e-20)
(-0.028220718 0.41843074 -1.0579449e-37)
(-0.024872743 0.40638437 -5.1476019e-20)
(-0.021512274 0.39610723 5.1998326e-20)
(-0.018210602 0.38435577 -1.8367099e-40)
(-0.015552801 0.37192067 -2.3641852e-20)
(-0.013006375 0.36159253 2.6409102e-20)
(-0.010311603 0.35358533 -2.6599066e-20)
(-0.0076719656 0.33580116 -2.4380175e-28)
(-0.0056625827 0.32842679 1.2023475e-20)
(-0.0037381805 0.3167253 -1.8364918e-25)
(-0.0019793182 0.30605138 6.0341336e-21)
(-0.00035081273 0.29567083 -3.0218406e-21)
(0.0011597354 0.28554183 -1.5124227e-21)
(0.002569241 0.27565189 9.7456579e-29)
(0.003881204 0.26593837 -1.6803669e-21)
(0.0050427636 0.25628868 1.8460743e-25)
(0.0060213601 0.24686333 3.3533267e-21)
(0.0068669193 0.23787621 -5.2073022e-37)
(0.0077003151 0.22942797 -6.6112686e-22)
(0.0085419586 0.22119678 6.700286e-21)
(0.0093173371 0.21295876 -6.6893573e-21)
(0.0099361228 0.20471487 1.8309464e-25)
(0.01040642 0.1967653 -1.8309902e-25)
(0.010787162 0.18923892 -6.6283811e-21)
(0.011164325 0.18215153 6.616346e-21)
(0.011555448 0.1753278 -5.9518674e-21)
(0.011944063 0.1686458 -3.6228051e-25)
(0.012275702 0.16201319 1.8086433e-25)
(0.012530355 0.15549873 -1.7922973e-25)
(0.012704946 0.1491549 1.7923393e-25)
(0.012820888 0.14303395 -6.4664329e-21)
(0.012891346 0.1371421 1.7730441e-25)
(0.012917927 0.13145058 -1.7524099e-25)
(0.012916114 0.12598429 1.7524396e-25)
(0.012878366 0.12070302 1.200441e-20)
(0.012811441 0.11562234 1.7193125e-25)
(0.012726417 0.11074905 -5.6159451e-21)
(0.012609841 0.10603015 6.1375514e-22)
(0.012478876 0.10152207 1.6840083e-25)
(0.012327539 0.097175762 -5.4990821e-21)
(0.012157886 0.093007612 5.4590991e-21)
(0.011977142 0.089020368 -6.0164405e-21)
(0.011802159 0.08521995 2.2958874e-41)
(0.011617729 0.081541419 -5.9301986e-21)
(0.011453327 0.078042202 0)
(0.011266035 0.074611973 -8.259194e-41)
(0.011088503 0.071339298 -4.719089e-44)
(0.010895292 0.068141455 -8.9731217e-38)
(0.010697651 0.065065275 -9.1922333e-42)
(0.010487538 0.062088398 9.1835496e-41)
(0.010251754 0.059195656 2.7843489e-21)
(0.010007923 0.056423848 2.4798371e-21)
(0.0097450725 0.053754558 -2.7219219e-21)
(0.0094780114 0.051212602 -1.8367099e-40)
(0.0091989825 0.04877916 -2.3932418e-21)
(0.0089294538 0.046472986 3.3428121e-38)
(0.0086469612 0.044261703 -2.5961429e-21)
(0.0083651314 0.042162839 -2.5661723e-21)
(0.0080982596 0.040194478 1.3861927e-25)
(0.0078319849 0.038318609 -1.3861797e-25)
(0.0076031671 0.036576155 1.3576502e-25)
(0.0073989388 0.034891623 1.1065197e-21)
(0.0072066813 0.03325775 -1.2165717e-21)
(0.0070273541 0.031681498 -1.2027377e-21)
(0.0068652805 0.030155725 9.1835496e-41)
(0.0066928901 0.028647845 -2.2266633e-21)
(0.0065273564 0.027188696 -1.0392124e-21)
(0.0063562058 0.025757605 -1.1361113e-21)
(0.0061781984 0.024355845 -1.1162181e-22)
(0.0060002612 0.022993765 -1.2132196e-25)
(0.0058053547 0.021640012 -1.1603028e-25)
(0.0056047452 0.020341381 2.2903105e-25)
(0.0055400364 0.019519044 -1.0134468e-21)
(0.0053704714 0.018474144 -8.8646256e-22)
(0.0045332035 0.015231755 -4.2333743e-22)
(0.0080003177 0.021550072 1.8367099e-40)
(0.0078720633 0.020443677 -1.7824318e-21)
(0.0079762297 0.019915301 3.8750872e-27)
(0.0078648722 0.018986673 1.6211659e-22)
(0.0079355048 0.018374129 -1.5839627e-21)
(0.0079414328 0.017691196 8.2330825e-26)
(0.008035323 0.017170427 -1.4727633e-21)
(0.0081170439 0.016664193 1.2858731e-21)
(0.0082788526 0.016296808 -2.2958874e-41)
(0.0083845325 0.015860605 1.2249195e-21)
(0.0085892609 0.015617016 1.3340572e-21)
(0.0087707135 0.015371768 7.9162198e-38)
(0.008967365 0.015187337 1.2766447e-22)
(0.009156902 0.015038506 1.1557655e-21)
(0.0093417164 0.01493444 5.7418084e-28)
(0.0095328335 0.014838476 6.9661426e-26)
(0.0097439539 0.014775575 -1.252958e-21)
(0.0099159308 0.014731042 -6.8767049e-26)
(0.01010151 0.014706419 -3.6734198e-40)
(0.010308547 0.014673603 -2.4704988e-21)
(0.010484725 0.014674212 2.2199755e-21)
(0.010674279 0.014671446 -2.2131605e-21)
(0.010873121 0.014678589 -2.2067639e-21)
(0.011049782 0.014693716 -4.6425155e-21)
(0.011231203 0.014718932 2.4357541e-21)
(0.01141861 0.014744569 2.1916461e-21)
(0.011589652 0.01478077 -2.3831328e-22)
(0.011763909 0.014824106 -2.1836918e-21)
(0.011969246 0.014914992 -4.5968795e-21)
(0.012051176 0.014892538 -2.1766511e-21)
(0.012262679 0.014984032 -2.1732223e-21)
(0.012016656 0.014589763 -2.4062734e-21)
(0.012943026 0.015624271 -2.1677042e-21)
(0.012691281 0.015188068 1.3204633e-25)
(0.012837912 0.015310813 2.1621117e-21)
(0.012973822 0.015417116 4.5550403e-21)
(0.013139798 0.015557279 2.3925777e-21)
(0.013244673 0.015633484 -1.3164713e-25)
(0.013384698 0.015740345 -2.1541103e-21)
(0.013513405 0.015864866 2.3411355e-22)
(0.01364827 0.015983373 -2.0240543e-37)
(0.013786987 0.016104109 2.3834877e-21)
(0.01390895 0.016243643 1.3110775e-25)
(0.014019549 0.016395356 4.5285141e-21)
(0.014142332 0.016543556 2.3342108e-22)
(0.014229953 0.016720541 1.310117e-25)
(0.01418226 0.016751402 2.3332546e-22)
(0.014434847 0.017124197 2.1458205e-21)
(0.014624586 0.017449877 -2.1460694e-21)
(0.014600499 0.017501282 -7.3468397e-40)
(0.01471752 0.017686877 2.1472543e-21)
(0.014814722 0.017899824 0)
(0.014924291 0.018021318 -2.1491543e-21)
(0.014935918 0.01810409 1.2048817e-37)
(0.015340011 0.018588537 -4.7712522e-21)
(0.015265475 0.018550912 -9.0819668e-21)
(0.015540517 0.018882707 -4.7784435e-21)
(0.015779451 0.01920242 4.7826332e-21)
(0.01578367 0.019266498 1.4693679e-39)
(0.015901431 0.019504071 4.3221425e-21)
(0.016019785 0.019742178 1.3212091e-25)
(0.016135715 0.019989059 -9.1348268e-21)
(0.016246611 0.020248045 -1.3228108e-25)
(0.016427503 0.020676102 -4.3434928e-21)
(0.016493624 0.020913896 -4.8224994e-21)
(0.016484331 0.021096639 -4.7351098e-22)
(0.01651272 0.021377195 -1.3330131e-25)
(0.016551025 0.021645924 1.3330145e-25)
(0.016733474 0.02208605 -4.8560421e-21)
(0.016799418 0.022431708 -1.3380669e-25)
(0.01688444 0.022767108 4.8762269e-21)
(0.016972702 0.023106428 1.3436672e-25)
(0.017057959 0.023474372 0)
(0.017157647 0.023791802 1.3527305e-25)
(0.017223053 0.024165217 4.438102e-21)
(0.017299146 0.02451212 4.9316472e-21)
(0.017386841 0.024898855 -1.3623966e-25)
(0.017459239 0.025288394 4.4698796e-21)
(0.017513354 0.025683045 -1.3691044e-25)
(0.017560475 0.026124005 1.3691087e-25)
(0.017599553 0.026513003 -4.5034663e-21)
(0.017633877 0.026939647 -5.0058915e-21)
(0.017661745 0.02738266 5.0186533e-21)
(0.017673632 0.027848597 4.9366326e-22)
(0.017684848 0.028302381 5.0461776e-21)
(0.017694036 0.028777728 -1.390846e-25)
(0.017695116 0.02925422 4.9745565e-22)
(0.017687499 0.029765813 4.5897693e-21)
(0.017660807 0.030215082 -2.8087076e-25)
(0.017624641 0.030739083 1.4063131e-25)
(0.017604081 0.031255715 -4.6279115e-21)
(0.017560602 0.031772907 1.4142521e-25)
(0.01751158 0.032325425 -5.1602596e-21)
(0.017436874 0.032852753 -1.4264524e-25)
(0.017355994 0.033412349 4.6817652e-21)
(0.017289576 0.033931765 3.6734198e-40)
(0.017180547 0.034533231 9.9277867e-21)
(0.017079627 0.035105415 -1.4428705e-25)
(0.016978584 0.035704129 5.2499009e-21)
(0.016845243 0.036283055 -5.165079e-22)
(0.016706029 0.036853625 0)
(0.016558696 0.037503777 1.0075544e-20)
(0.016417585 0.03809529 5.3119371e-21)
(0.016248037 0.038756917 -4.8070997e-21)
(0.016093655 0.039364738 -1.4735663e-25)
(0.015902077 0.040000112 -4.8369521e-21)
(0.015745372 0.040639611 -5.2779799e-22)
(0.015558475 0.041314802 -5.397665e-21)
(0.01539733 0.041944434 1.4922262e-25)
(0.015210588 0.042632247 4.647204e-28)
(0.015036522 0.043236707 -4.9118636e-21)
(0.014841671 0.043921161 -5.4631043e-21)
(0.014633231 0.044592364 3.0162036e-25)
(0.014442638 0.045283143 5.4960977e-21)
(0.01422083 0.04592481 1.5147888e-25)
(0.013989087 0.046641776 5.5305846e-21)
(0.013800292 0.047319987 5.5462983e-21)
(0.013596871 0.048020663 0)
(0.013399224 0.04870636 5.5796513e-21)
(0.013199105 0.049374418 9.1835496e-41)
(0.014952583 0.057731394 -1.0121798e-20)
(0.014437627 0.057636182 -2.362009e-37)
(0.013928897 0.057552245 1.8367099e-40)
(0.013451646 0.057422642 5.6589737e-21)
(0.012987947 0.057309678 3.8621683e-28)
(0.012551379 0.057156823 -3.1306299e-25)
(0.012123622 0.057005981 -3.4865207e-28)
(0.011731957 0.056820386 5.7128894e-21)
(0.011354078 0.056661995 -5.1642682e-21)
(0.011027454 0.056441872 5.1724949e-21)
(0.010701384 0.056202936 -5.7436828e-21)
(0.010380544 0.055964076 -1.5833989e-25)
(0.010077728 0.055698191 5.1907745e-21)
(0.0097749436 0.055435132 1.1479437e-41)
(0.009495586 0.055145991 5.1985754e-21)
(0.0092214544 0.054834832 -5.7657298e-21)
(0.008938859 0.054537164 -5.668611e-22)
(0.008676454 0.054227255 1.0970023e-20)
(0.008436279 0.053903292 5.2013343e-21)
(0.0082048873 0.053540479 5.7636058e-21)
(0.0079605774 0.053218227 7.4203784e-29)
(0.0077557939 0.052857169 1.5852383e-25)
(0.0075530804 0.052460103 2.87512e-21)
(0.0073370238 0.052095217 -2.8723563e-21)
(0.0071509509 0.051708724 2.9300868e-28)
(0.0069718355 0.051268299 -2.5802617e-21)
(0.0067664065 0.050862873 -7.892113e-42)
(0.0065793209 0.050431283 -2.5692476e-21)
(0.0063884502 0.049984303 -2.841873e-21)
(0.0061848462 0.049542096 2.5551383e-21)
(0.0059851891 0.049097032 -5.7810445e-38)
(0.0057895325 0.048642561 -5.3562791e-21)
(0.0055934681 0.048187563 2.8073138e-21)
(0.0054062919 0.047740262 -2.7984453e-21)
(0.0052367434 0.047237102 -2.7409337e-22)
(0.005037101 0.046766752 -4.3875843e-38)
(0.0048520725 0.046265629 -2.7178776e-22)
(0.0046438127 0.045771078 2.4794269e-21)
(0.0044347035 0.045258803 2.7358998e-21)
(0.0042043905 0.044795908 2.5111268e-42)
(0.0040089616 0.044263705 2.7085712e-21)
(0.0037652478 0.043807876 1.3488359e-21)
(0.0035667412 0.043278364 1.2084797e-21)
(0.003320524 0.042813149 -1.3342677e-21)
(0.0031068964 0.04231008 1.4642376e-25)
(0.0028764589 0.041826493 1.3195542e-21)
(0.0026509886 0.041342117 1.4402778e-25)
(0.0024221987 0.040860517 -1.4403087e-25)
(0.0021913274 0.040394817 -1.2982977e-21)
(0.0019720378 0.039926303 1.4248918e-25)
(0.0017619674 0.039474602 -1.409727e-25)
(0.0015669571 0.039007289 5.7593181e-22)
(0.0013607297 0.038550062 -5.7264071e-22)
(0.0011607821 0.038112267 -6.3177556e-22)
(0.00098301693 0.037684746 6.2880003e-22)
(0.00082497653 0.037227845 2.8167681e-22)
(0.00065740718 0.036821283 -2.8050869e-22)
(0.00052199461 0.03636889 3.0929506e-22)
(0.00037430425 0.035989334 -1.3521822e-25)
(0.00028087699 0.035555831 -1.3780597e-22)
(0.00019002768 0.035172351 -2.6839896e-25)
(0.0001424031 0.034746719 1.5174196e-22)
(0.00011283431 0.034354493 1.5087412e-22)
(0.00012841882 0.033880783 1.3513441e-22)
(0.00011476567 0.033444867 1.4521141e-23)
(0.00012921128 0.032962821 1.4759423e-22)
(0.00013378494 0.032494704 -3.5873241e-43)
(0.00012979021 0.031987652 9.2974976e-42)
(0.00010203069 0.03155345 3.166728e-39)
(0.00011705197 0.03105835 1.2513044e-25)
(0.0001126615 0.030608521 -1.2786247e-22)
(0.00012390753 0.030121427 2.4695157e-25)
(0.00013531266 0.029679968 -1.1662324e-27)
(0.00018176051 0.029171072 -1.2412844e-22)
(0.00020704411 0.028685816 -2.5886995e-22)
(0.00022861479 0.028138844 4.9537179e-39)
(0.00019408568 0.027641335 1.1622237e-25)
(0.0001460502 0.027102097 1.1799348e-22)
(3.3747019e-05 0.026968737 -1.297844e-22)
(-7.3067901e-05 0.02591681 1.1372917e-25)
)
;
    }
    defaultFaces
    {
        type            empty;
    }
}


// ************************************************************************* //
