/*--------------------------------*- C++ -*----------------------------------*\
| =========                 |                                                 |
| \\      /  F ield         | OpenFOAM: The Open Source CFD Toolbox           |
|  \\    /   O peration     | Version:  2406                                  |
|   \\  /    A nd           | Website:  www.openfoam.com                      |
|    \\/     M anipulation  |                                                 |
\*---------------------------------------------------------------------------*/
FoamFile
{
    version     2.0;
    format      ascii;
    arch        "LSB;label=32;scalar=64";
    class       volScalarField;
    location    "2406";
    object      initialResidual:nuTilda;
}
// * * * * * * * * * * * * * * * * * * * * * * * * * * * * * * * * * * * * * //

dimensions      [0 0 0 0 0 0 0];

internalField   nonuniform List<scalar> 
69120
(
-5.665786e-19
-2.1136557e-18
-8.4996944e-20
4.7433349e-19
7.610012e-18
-3.7539805e-18
2.8547406e-17
-1.1193358e-17
6.8143245e-17
2.2229983e-18
1.1702153e-16
1.1892051e-16
1.899905e-16
4.8649419e-16
5.2358357e-16
1.3612301e-15
2.7590083e-15
2.7604204e-15
1.4949668e-14
1.6469966e-14
-1.0996001e-18
-3.8750905e-18
-1.6100409e-19
8.6530371e-19
1.4007113e-17
-6.9273531e-18
5.2632536e-17
-2.0730867e-17
1.2576695e-16
4.057129e-18
2.1642121e-16
2.2042958e-16
3.5215014e-16
9.0280477e-16
9.7316134e-16
2.5241935e-15
5.1348046e-15
5.1111629e-15
2.7795001e-14
3.0592829e-14
-1.7420506e-18
-6.2478556e-18
-2.6874436e-19
1.3654601e-18
2.2641899e-17
-1.1376394e-17
8.6125926e-17
-3.4452033e-17
2.0762763e-16
6.569164e-18
3.5913559e-16
3.6848114e-16
5.87574e-16
1.5131487e-15
1.639779e-15
4.2264749e-15
8.6940032e-15
8.528905e-15
4.6953525e-14
5.1536825e-14
-2.3412123e-18
-8.8176428e-18
-4.0042159e-19
1.8620828e-18
3.204149e-17
-1.6481885e-17
1.2390452e-16
-5.0596507e-17
3.0205113e-16
9.4375352e-18
5.2556002e-16
5.4462599e-16
8.6565989e-16
2.2413569e-15
2.4472374e-15
6.2451326e-15
1.3050552e-14
1.2535646e-14
7.0218373e-14
7.6767072e-14
-2.8743352e-18
-1.1630288e-17
-5.6578492e-19
2.3302207e-18
4.2098954e-17
-2.2293245e-17
1.6561688e-16
-6.9227923e-17
4.0802535e-16
1.2732864e-17
7.1306119e-16
7.4731578e-16
1.1817369e-15
3.0756884e-15
3.3889974e-15
8.5271597e-15
1.8175135e-14
1.6984741e-14
9.7251114e-14
1.0577828e-13
-3.3565269e-18
-1.4776152e-17
-7.7489618e-19
2.7417265e-18
5.2660779e-17
-2.8862012e-17
2.1077203e-16
-9.0379951e-17
5.2427718e-16
1.660481e-17
9.1856795e-16
9.7480554e-16
1.5307412e-15
4.0027976e-15
4.4603501e-15
1.1013666e-14
2.4054966e-14
2.1718014e-14
1.2777964e-13
1.3812329e-13
-3.2496022e-18
-2.0880825e-17
-1.0372514e-18
3.0663916e-18
6.3513098e-17
-3.6236837e-17
2.5872309e-16
-1.1403991e-16
6.4934837e-16
2.1350736e-17
1.138938e-15
1.225859e-15
1.9090005e-15
5.0140744e-15
5.6698401e-15
1.3667327e-14
3.0780481e-14
2.6625928e-14
1.6208058e-13
1.7392407e-13
-3.1054147e-18
-2.37889e-17
-1.3614069e-18
3.2736103e-18
7.436891e-17
-4.4448398e-17
3.0866436e-16
-1.4011248e-16
7.8174291e-16
2.7530053e-17
1.3718916e-15
1.5016088e-15
2.317411e-15
6.1131757e-15
7.0513536e-15
1.6456057e-14
3.8572122e-14
3.1503148e-14
2.0064057e-13
2.132745e-13
-2.7059063e-18
-2.5947425e-17
-1.7573948e-18
3.3359069e-18
8.4849858e-17
-5.3483566e-17
3.5964262e-16
-1.6839026e-16
9.2028647e-16
3.6139825e-17
1.6165444e-15
1.8055867e-15
2.7549465e-15
7.2757377e-15
8.6118793e-15
1.9064809e-14
4.7262531e-14
3.5197959e-14
2.4012813e-13
2.5145078e-13
-2.0195118e-18
-2.6970542e-17
-2.2343538e-18
3.3086695e-18
9.4396502e-17
-6.3231433e-17
4.1061616e-16
-1.9851509e-16
1.0641874e-15
4.8994927e-17
1.8659232e-15
2.1302796e-15
3.1827183e-15
8.3270403e-15
1.0204889e-14
2.0576944e-14
5.5716566e-14
3.5304034e-14
2.7145431e-13
2.7741e-13
-1.038244e-18
-2.6408701e-17
-2.8006086e-18
3.2721677e-18
1.0231862e-16
-7.3414675e-17
4.6047898e-16
-2.2968961e-16
1.2094435e-15
6.9498842e-17
2.0860249e-15
2.4355407e-15
3.5070404e-15
8.9762881e-15
1.1624633e-14
2.0108887e-14
6.2991333e-14
3.0067644e-14
2.8861701e-13
2.8420872e-13
2.1558312e-19
-2.329465e-17
-3.4629619e-18
3.2712412e-18
1.0786785e-16
-8.3447674e-17
5.0730158e-16
-2.5904015e-16
1.3386727e-15
1.0305723e-16
2.2159663e-15
2.6702231e-15
3.6529592e-15
9.0548724e-15
1.2817648e-14
1.7302905e-14
6.9030727e-14
1.8776334e-14
2.9041764e-13
2.7011924e-13
1.6887852e-18
-6.8558053e-18
-4.2742077e-18
3.4924757e-18
1.0999686e-16
-9.1956544e-17
5.4521489e-16
-2.786641e-16
1.4182646e-15
1.5576152e-16
2.2096265e-15
2.8108797e-15
3.5961398e-15
8.4982883e-15
1.3801136e-14
1.1885755e-14
7.3852077e-14
6.7761111e-16
2.7527019e-13
2.3283767e-13
3.3101121e-18
-2.08787e-18
-5.2742624e-18
4.3049391e-18
1.0692568e-16
-9.5317676e-17
5.6100718e-16
-2.7630088e-16
1.4176191e-15
2.3280192e-16
2.0465747e-15
2.8487052e-15
3.3202988e-15
7.2238307e-15
1.4566832e-14
3.4690361e-15
7.7253079e-14
-2.5174812e-14
2.4034693e-13
1.6883699e-13
5.0003664e-18
3.1454833e-18
-6.4056073e-18
6.4818667e-18
9.5065896e-17
-8.6325151e-17
5.3855731e-16
-2.4133451e-16
1.3206593e-15
3.3849597e-16
1.7104285e-15
2.7697088e-15
2.8012362e-15
5.1158063e-15
1.5085709e-14
-8.3985214e-15
7.8905624e-14
-5.9759702e-14
1.8224485e-13
7.4174741e-14
6.6842348e-18
9.6740956e-18
-7.5569633e-18
1.167439e-17
6.914457e-17
-5.6479522e-17
4.6749506e-16
-1.6709377e-16
1.1168832e-15
4.7668897e-16
1.1810833e-15
2.5530742e-15
2.0117464e-15
2.039253e-15
1.532356e-14
-2.4193987e-14
7.8415115e-14
-1.0401512e-13
9.7273464e-14
-5.5172297e-14
8.2894813e-18
1.8023141e-17
-8.4038374e-18
2.2596563e-17
2.5224853e-17
-1.6220681e-19
3.429846e-16
-4.8525671e-17
7.9476593e-16
6.5084826e-16
4.3650911e-16
2.1729334e-15
9.2566132e-16
-2.1543978e-15
1.5247289e-14
-4.4407891e-14
7.5334441e-14
-1.5880402e-13
-1.8466474e-14
-2.2319333e-13
9.7454582e-18
2.7962755e-17
-7.8840239e-18
4.1598e-17
-3.7219051e-17
8.5014368e-17
1.6138243e-16
1.1940962e-16
3.4144915e-16
8.6389695e-16
-5.4527492e-16
1.5990542e-15
-4.8004661e-16
-7.6254022e-15
1.4826959e-14
-6.953514e-14
6.9164221e-14
-2.2487905e-13
-1.6903852e-13
-4.3375856e-13
1.098165e-17
3.8216194e-17
-5.2330754e-18
6.871036e-17
-1.1667254e-16
1.9992286e-16
-8.1230036e-17
3.4185742e-16
-2.5626474e-16
1.1178997e-15
-1.7847382e-15
7.9691401e-16
-2.2234564e-15
-1.4543713e-14
1.4037062e-14
-1.0006215e-13
5.9349783e-14
-3.0283822e-13
-3.5861646e-13
-6.9052031e-13
1.1930922e-17
4.770974e-17
-1.2038456e-18
1.0221792e-16
-2.1106621e-16
3.4457618e-16
-3.884942e-16
6.235738e-16
-1.0104963e-15
1.413399e-15
-3.2987851e-15
-2.7235328e-16
-4.3156955e-15
-2.3085405e-14
1.2856845e-14
-1.3644867e-13
4.5277015e-14
-3.9306914e-13
-5.914058e-13
-9.9679004e-13
1.2532924e-17
5.6071358e-17
3.4714587e-18
1.4000502e-16
-3.1776716e-16
5.1765741e-16
-7.6250541e-16
9.678622e-16
-1.9303813e-15
1.7482921e-15
-5.0983226e-15
-1.6513856e-15
-6.7583166e-15
-3.34273e-14
1.1270187e-14
-1.791027e-13
2.6269389e-14
-4.9568192e-13
-8.715352e-13
-1.3553882e-12
1.2739878e-17
6.3149588e-17
8.4575181e-18
1.8004554e-16
-4.331898e-16
7.1559546e-16
-1.2020943e-15
1.3750259e-15
-3.0194429e-15
2.1165397e-15
-7.185023e-15
-3.3859261e-15
-9.5408859e-15
-4.5738459e-14
9.2646702e-15
-2.2834733e-13
1.5860184e-15
-6.1043133e-13
-1.2029089e-12
-1.7684661e-12
1.2522522e-17
6.8800092e-17
1.356915e-17
2.2044583e-16
-5.5280885e-16
9.317697e-16
-1.7010607e-15
1.8403502e-15
-4.2724003e-15
2.5063315e-15
-9.5473149e-15
-5.5232325e-15
-1.2637618e-14
-6.016847e-14
6.8300197e-15
-2.8437828e-13
-2.9576947e-14
-7.3662947e-13
-1.5890147e-12
-2.2372998e-12
1.1878896e-17
7.2870456e-17
1.864436e-17
2.5950739e-16
-6.7165456e-16
1.1565007e-15
-2.2468387e-15
2.352086e-15
-5.6716598e-15
2.8982029e-15
-1.2156139e-14
-8.109651e-15
-1.6004867e-14
-7.6830689e-14
3.9545495e-15
-3.4721142e-13
-6.8079812e-14
-8.7305118e-13
-2.032682e-12
-2.7620604e-12
1.0833015e-17
7.5215149e-17
2.3513211e-17
2.9569984e-16
-7.8503818e-16
1.3781794e-15
-2.8206832e-15
2.8899392e-15
-7.184464e-15
3.2631538e-15
-1.4960465e-14
-1.1186881e-14
-1.9578618e-14
-9.5781134e-14
6.1995019e-16
-4.1661923e-13
-1.148269e-13
-1.0178384e-12
-2.5357828e-12
-3.3415641e-12
9.44003e-18
7.570304e-17
2.7931864e-17
3.2769291e-16
-8.8902418e-16
1.5852167e-15
-3.3999564e-15
3.4256037e-15
-8.7618613e-15
3.5616448e-15
-1.7884138e-14
-1.4786705e-14
-2.3273718e-14
-1.1699088e-13
-3.2056301e-15
-4.920573e-13
-1.7074365e-13
-1.1684089e-12
-3.0988744e-12
-3.9730099e-12
7.7860724e-18
7.4236826e-17
3.1589776e-17
3.5424464e-16
-9.8049146e-16
1.7678569e-15
-3.9620178e-15
3.9257656e-15
-1.0341544e-14
3.744465e-15
-2.0825718e-14
-1.8924403e-14
-2.6985535e-14
-1.4031449e-13
-7.5781463e-15
-5.7258498e-13
-2.3674051e-13
-1.3213837e-12
-3.7207848e-12
-4.65172e-12
6.1053804e-18
7.0677064e-17
3.4187414e-17
3.7402751e-16
-1.0568214e-15
1.9188235e-15
-4.4879727e-15
4.3580184e-15
-1.1856179e-14
3.7571671e-15
-2.3663495e-14
-2.3590735e-14
-3.0595928e-14
-1.6545554e-13
-1.2590338e-14
-6.5678548e-13
-3.1366024e-13
-1.4725484e-12
-4.3981541e-12
-5.370904e-12
4.3011539e-18
6.533721e-17
3.5416565e-17
3.8485556e-16
-1.1145039e-15
2.0327452e-15
-4.9644898e-15
4.6969332e-15
-1.3245488e-14
3.5481245e-15
-2.6268382e-14
-2.8743944e-14
-3.3984476e-14
-1.9193536e-13
-1.8385189e-14
-7.4270038e-13
-4.022042e-13
-1.616874e-12
-5.1249572e-12
-6.121476e-12
2.5841387e-18
5.8363349e-17
3.495885e-17
3.8599058e-16
-1.1520063e-15
2.1050988e-15
-5.3827978e-15
4.9274465e-15
-1.4467614e-14
3.0801574e-15
-2.852523e-14
-3.4305004e-14
-3.7046802e-14
-2.1907509e-13
-2.5170411e-14
-8.2779812e-13
-5.0283525e-13
-1.7486218e-12
-5.8920538e-12
-6.8919645e-12
1.1151751e-18
5.013903e-17
3.2523842e-17
3.7805664e-16
-1.1695094e-15
2.1315626e-15
-5.7364163e-15
5.0438457e-15
-1.5504057e-14
2.3399624e-15
-3.0357275e-14
-4.0156816e-14
-3.9717931e-14
-2.460041e-13
-3.3226412e-14
-9.0900239e-13
-6.1565863e-13
-1.8615681e-12
-6.6868334e-12
-7.6685658e-12
3.5486048e-20
4.1189809e-17
2.7991792e-17
3.6060882e-16
-1.165879e-15
2.1075416e-15
-6.0188315e-15
5.0459345e-15
-1.6355779e-14
1.3421813e-15
-3.1744366e-14
-4.6152908e-14
-4.1996381e-14
-2.7170973e-13
-4.2904672e-14
-9.828168e-13
-7.4028835e-13
-1.9493733e-12
-7.4930544e-12
-8.4353918e-12
-5.6565919e-19
3.2112501e-17
2.1412464e-17
3.3333669e-16
-1.1363286e-15
2.0240208e-15
-6.2228732e-15
4.9347191e-15
-1.7033707e-14
1.2399546e-16
-3.2724742e-14
-5.2132438e-14
-4.3959146e-14
-2.9513815e-13
-5.4606412e-14
-1.0455684e-12
-8.7571215e-13
-2.0061054e-12
-8.2909849e-12
-9.1749647e-12
-7.3726443e-19
2.3521298e-17
1.2648478e-17
2.9622606e-16
-1.0832302e-15
1.8805876e-15
-6.3402347e-15
4.7097522e-15
-1.7549859e-14
-1.2657417e-15
-3.337835e-14
-5.7938097e-14
-4.5757811e-14
-3.1533384e-13
-6.8738079e-14
-1.093779e-12
-1.0201847e-12
-2.0269002e-12
-9.0579642e-12
-9.8689904e-12
-6.3097833e-19
1.5482889e-17
2.3695217e-18
2.4978112e-16
-1.0159737e-15
1.6846003e-15
-6.3619899e-15
4.3695516e-15
-1.7912683e-14
-2.7773838e-15
-3.3800314e-14
-6.3430157e-14
-4.7591603e-14
-3.3158461e-13
-8.5644274e-14
-1.1246266e-12
-1.1711783e-12
-2.0086927e-12
-9.7694662e-12
-1.0499404e-11
-4.4280136e-19
7.9839076e-18
-8.2574066e-18
1.9551574e-16
-9.3878991e-16
1.4255836e-15
-6.2668902e-15
3.9134159e-15
-1.8126857e-14
-4.3669529e-15
-3.4078134e-14
-6.8491077e-14
-4.9666814e-14
-3.435154e-13
-1.0553093e-13
-1.1364004e-12
-1.3254287e-12
-1.9508934e-12
-1.0400658e-11
-1.1049635e-11
-2.8494718e-19
7.7953501e-20
-2.0023753e-17
1.3802614e-16
-8.560115e-16
1.1142286e-15
-6.0563059e-15
3.3391343e-15
-1.8192824e-14
-5.9964884e-15
-3.4281172e-14
-7.3022988e-14
-5.2157524e-14
-3.5109293e-13
-1.2840224e-13
-1.1288178e-12
-1.4790921e-12
-1.8558492e-12
-1.0928337e-11
-1.1505953e-11
-1.7776442e-19
-1.9436097e-18
-3.2446126e-17
8.0647595e-17
-7.7205317e-16
7.8305062e-16
-5.7255861e-15
2.6153362e-15
-1.810724e-14
-7.6332847e-15
-3.4461149e-14
-7.6942447e-14
-5.5185809e-14
-3.5453899e-13
-1.5403721e-13
-1.1030767e-12
-1.6280007e-12
-1.7289302e-12
-1.1332967e-11
-1.1858735e-11
-1.5835049e-19
-1.3971842e-18
-3.9085105e-17
1.9727186e-17
-6.838044e-16
4.4922774e-16
-5.295816e-15
1.762374e-15
-1.7863816e-14
-9.2465301e-15
-3.4656522e-14
-8.0177001e-14
-5.8820312e-14
-3.5420363e-13
-1.8200957e-13
-1.061605e-12
-1.7679641e-12
-1.5781501e-12
-1.1600433e-11
-1.2103481e-11
-1.6487695e-19
-4.0580488e-19
-1.4758715e-17
-4.5887481e-17
-5.8892041e-16
1.3198002e-16
-4.8325923e-15
8.4804939e-16
-1.7452606e-14
-1.0807256e-14
-3.4890907e-14
-8.2664744e-14
-6.3084859e-14
-3.5045999e-13
-2.1174313e-13
-1.007596e-12
-1.8950445e-12
-1.4133687e-12
-1.1723135e-11
-1.2241379e-11
-1.2179076e-19
1.0034197e-18
-6.4545366e-18
-7.4823344e-17
-5.1384417e-16
-1.4025426e-16
-4.356725e-15
-1.5669093e-16
-1.6802247e-14
-1.2289882e-14
-3.5174005e-14
-8.4357692e-14
-6.7964135e-14
-3.4366e-13
-2.4256626e-13
-9.4450879e-13
-2.0057342e-12
-1.2452621e-12
-1.1700166e-11
-1.2279291e-11
-9.3838677e-20
-2.2948306e-19
-3.7576797e-18
-5.0484911e-17
-4.6264357e-16
-3.556793e-16
-3.8723339e-15
-1.1971693e-15
-1.5841773e-14
-1.3756144e-14
-3.5498189e-14
-8.5224471e-14
-7.3400609e-14
-3.3414627e-13
-2.737393e-13
-8.757041e-13
-2.0970132e-12
-1.0843329e-12
-1.15366e-11
-1.222938e-11
-6.4324873e-20
-1.4501502e-18
2.1745917e-18
-2.0702372e-17
-3.9544985e-16
-5.5637063e-16
-3.3561876e-15
-2.1098811e-15
-1.4714568e-14
-1.51477e-14
-3.5816998e-14
-8.5260636e-14
-7.9279343e-14
-3.2228453e-13
-3.0445381e-13
-8.0428738e-13
-2.166321e-12
-9.4016822e-13
-1.1242176e-11
-1.2111718e-11
-5.5311913e-20
-6.4796697e-19
-9.9251747e-19
-1.0321136e-17
-1.1475531e-16
-7.762895e-16
-2.9013763e-15
-2.7693683e-15
-1.3587284e-14
-1.6424687e-14
-3.5917124e-14
-8.4486807e-14
-8.5417364e-14
-3.0849218e-13
-3.3381018e-13
-7.3310897e-13
-2.2115046e-12
-8.210209e-13
-1.0829938e-11
-1.1951229e-11
-4.6960698e-20
-1.1526596e-19
-2.8513776e-18
-7.4047885e-19
-3.0117487e-17
-5.8136781e-16
-2.6070895e-15
-3.1923706e-15
-1.2404284e-14
-1.7490305e-14
-3.5732729e-14
-8.2942937e-14
-9.1533768e-14
-2.9327235e-13
-3.6078687e-13
-6.6482554e-13
-2.2307972e-12
-7.3370354e-13
-1.0315318e-11
-1.1771267e-11
-3.7537456e-20
-4.3151696e-19
-9.9584936e-19
-7.0807388e-18
-1.6268426e-17
-1.7884324e-16
-2.2480074e-15
-3.5948582e-15
-1.1007366e-14
-1.7962929e-14
-3.5219494e-14
-8.0829515e-14
-9.7255483e-14
-2.7721663e-13
-3.8407905e-13
-6.0202874e-13
-2.2228145e-12
-6.8410493e-13
-9.714289e-12
-1.1593169e-11
-3.9373797e-20
-4.5448942e-19
-6.3194283e-19
-7.5971775e-18
-4.2996319e-18
-5.1972909e-17
-7.190883e-16
-4.2465582e-15
-9.9002524e-15
-1.7515046e-14
-3.413967e-14
-7.8589865e-14
-1.017796e-13
-2.6084725e-13
-4.023645e-13
-5.4699325e-13
-2.1867449e-12
-6.7602025e-13
-9.0441899e-12
-1.1497985e-11
-3.2782822e-20
-2.8266416e-19
-1.1861075e-18
-3.7021693e-18
-1.654845e-17
7.4417138e-18
-1.125902e-16
-2.8041878e-15
-9.9304787e-15
-1.6838695e-14
-3.1833297e-14
-7.6154672e-14
-1.0457049e-13
-2.4464588e-13
-4.1440278e-13
-5.0145868e-13
-2.1225622e-12
-7.1043518e-13
-8.3271247e-12
-1.1401001e-11
-2.4788949e-20
-3.3294681e-19
-6.559079e-19
-5.0852748e-18
-5.9560048e-18
-2.3836407e-17
-4.554561e-17
-5.0835111e-16
-8.751797e-15
-1.6239049e-14
-2.9171984e-14
-7.2188796e-14
-1.0410004e-13
-2.3037731e-13
-4.1845641e-13
-4.6688087e-13
-2.030841e-12
-7.8774834e-13
-7.598068e-12
-1.1156757e-11
-6.9350823e-21
-2.8306121e-19
-6.8613639e-19
-4.3618425e-18
-4.7448602e-18
-2.6128922e-17
-1.6403084e-17
-9.1617797e-17
-2.1074756e-15
-1.6198629e-14
-2.8216758e-14
-6.5049383e-14
-1.0091878e-13
-2.207275e-13
-4.040311e-13
-4.5116848e-13
-1.9094189e-12
-9.3821237e-13
-6.8087158e-12
-1.08401e-11
-1.0713643e-20
-2.0460147e-19
-8.1286708e-19
-3.6250363e-18
-5.5281208e-18
-1.5875773e-17
-3.6909553e-17
-7.9426544e-18
-1.3826323e-16
-6.8045329e-15
-3.0966834e-14
-5.6776181e-14
-9.5704891e-14
-2.0828331e-13
-3.8158868e-13
-4.4511198e-13
-1.765313e-12
-1.1032684e-12
-6.0124669e-12
-1.046772e-11
-2.3663983e-20
-2.0297358e-19
-6.8860139e-19
-3.3816202e-18
-3.7448981e-18
-1.8431549e-17
-6.3946024e-18
-1.0414391e-16
1.5584451e-16
-6.98924e-16
-2.1455107e-14
-5.849481e-14
-9.0552687e-14
-1.8599606e-13
-3.6198103e-13
-4.3545803e-13
-1.6116043e-12
-1.2140819e-12
-5.3344291e-12
-9.9636566e-12
-7.9144641e-21
-2.4891188e-19
-5.1823527e-19
-2.9363191e-18
-4.0570694e-18
-1.311473e-17
-1.8213419e-17
-4.2825628e-17
-6.8760176e-17
-1.2032284e-16
-2.119559e-15
-4.8180018e-14
-8.9121615e-14
-1.6111758e-13
-3.3147338e-13
-4.241576e-13
-1.4508183e-12
-1.2994185e-12
-4.7482049e-12
-9.338744e-12
-8.2188666e-21
-2.9494283e-19
-7.6645232e-19
-3.2334953e-18
-5.0328779e-18
-1.1780501e-17
-1.895358e-17
-3.0949366e-17
-6.0314933e-17
-6.5385782e-17
-6.7396387e-17
-6.7821721e-15
-8.5958509e-14
-1.4533817e-13
-2.9380954e-13
-4.0420981e-13
-1.2817775e-12
-1.3559793e-12
-4.2374686e-12
-8.6625431e-12
-1.0950548e-19
1.3165407e-19
-1.4072427e-18
-4.3029274e-19
-4.2772649e-18
-4.4601115e-18
-1.0777138e-17
-1.3414302e-17
-2.0835879e-17
-3.9994236e-17
2.8337858e-17
-1.5764463e-16
-1.725786e-14
-1.4777569e-13
-2.5906203e-13
-3.7417707e-13
-1.0990836e-12
-1.3741373e-12
-3.7944491e-12
-7.9515083e-12
1.7135212e-19
3.7208569e-19
7.9480145e-19
-6.0885787e-19
-7.6827874e-19
-1.0419035e-18
-2.0612811e-18
-3.019593e-18
-4.6858458e-18
-4.9324714e-18
-2.2671062e-17
-1.0821322e-17
-4.0713109e-16
-4.8171387e-14
-2.4236976e-13
-3.5687198e-13
-9.1289445e-13
-1.3363112e-12
-3.3992165e-12
-7.2256398e-12
4.6891215e-20
1.1833977e-19
1.4313533e-19
3.1962259e-20
5.6420335e-19
1.8609579e-19
5.0537427e-19
2.0508785e-19
4.2093567e-19
3.5188263e-19
6.56702e-19
2.2117552e-18
4.858045e-18
-1.5601129e-15
-9.9657939e-14
-3.7260842e-13
-7.4380339e-13
-1.2357809e-12
-3.0200432e-12
-6.4846483e-12
3.6898873e-20
1.6149874e-19
6.0880493e-20
2.7504748e-19
2.370832e-19
2.664051e-19
3.3689412e-19
5.2115687e-19
3.2461876e-19
1.0402425e-18
-1.7355573e-19
3.1290324e-18
-1.9876753e-18
5.4371442e-18
-4.0738119e-15
-2.7779391e-13
-6.2749716e-13
-1.1121197e-12
-2.639453e-12
-5.6905191e-12
4.6692691e-20
1.0198144e-19
1.5098362e-19
1.7696371e-19
3.0333706e-19
2.9844677e-19
4.8360949e-19
5.8123666e-19
5.3613877e-19
8.5263131e-19
8.4408818e-19
8.9560499e-19
1.2509022e-18
1.5728475e-18
1.7593285e-17
-1.6569996e-14
-4.2937554e-13
-1.0480316e-12
-2.2805249e-12
-4.8479351e-12
5.1219024e-20
8.7456152e-20
2.4724098e-19
-6.9681695e-21
6.7894323e-19
3.9291079e-19
7.6534059e-19
4.6559681e-19
9.0664951e-19
5.3744241e-19
1.2905606e-18
3.2780837e-19
1.8830535e-18
-8.2698209e-20
4.1204182e-18
1.0118781e-17
-3.098298e-14
-8.9214171e-13
-2.0701831e-12
-4.0284339e-12
5.1324903e-20
1.2813359e-19
1.7488583e-19
1.6706401e-19
3.4486152e-19
5.9635752e-19
2.3317229e-19
9.2926132e-19
9.7163943e-20
1.3472456e-18
2.0399597e-19
1.2179871e-18
1.5703528e-18
-1.4939742e-18
8.2492076e-18
-2.3984664e-18
9.1218777e-16
-6.7759213e-14
-1.8274443e-12
-3.6330057e-12
6.5406825e-20
8.4895201e-20
2.5545323e-19
7.9349782e-20
5.1987971e-19
9.732938e-20
7.3561503e-19
2.5653187e-19
9.0496206e-19
4.2928689e-19
1.2144666e-18
6.0111546e-19
9.6266618e-19
2.9572435e-18
-4.3719275e-18
1.5486012e-17
2.0383001e-17
3.9062871e-15
-1.6930491e-13
-2.9972189e-12
5.8577622e-20
1.6591258e-19
1.3118423e-19
3.2113798e-19
2.6591541e-19
4.3781677e-19
4.1574098e-19
6.8224533e-19
5.369461e-19
8.8196644e-19
9.1228757e-19
8.2866954e-19
1.2261199e-18
1.8593101e-18
-2.4128792e-18
1.0384372e-17
-1.270161e-17
7.4035649e-17
1.1395242e-14
-2.186903e-13
5.8286455e-20
1.6896984e-19
1.5286298e-19
3.2135636e-19
2.4710863e-19
5.1609453e-19
2.9572038e-19
9.2795106e-19
1.8207238e-19
1.4499219e-18
2.4676452e-19
1.5569127e-18
9.8486109e-19
1.3047087e-18
-4.920335e-19
1.2813531e-17
-3.1583953e-17
6.3736582e-17
1.9542941e-16
2.0365265e-14
6.6836193e-20
1.1393917e-19
2.8906323e-19
1.4038248e-19
5.7244869e-19
1.2743875e-19
9.3443616e-19
1.7455496e-19
1.3069983e-18
1.9407642e-19
1.8369895e-18
3.9512764e-19
8.8594352e-19
5.7716296e-18
-1.3653337e-17
3.9955868e-17
-7.6406951e-17
1.3459839e-16
-1.9774606e-16
6.865783e-16
6.119813e-20
2.3149146e-19
1.1927283e-19
4.744708e-19
1.3814578e-19
7.8502749e-19
1.4636465e-19
1.2428356e-18
7.2037505e-20
1.7369337e-18
2.893544e-19
1.6775223e-18
1.3522616e-18
6.9202592e-19
3.6362463e-18
-3.6375168e-18
1.6847181e-17
-3.0549064e-17
4.8268477e-17
-3.8618495e-17
7.4221262e-20
1.5157919e-19
2.8576774e-19
2.286989e-19
5.1455928e-19
3.3018403e-19
7.7758948e-19
5.4120111e-19
9.8291556e-19
8.2867616e-19
1.3381135e-18
8.9802698e-19
2.0525329e-18
1.4248682e-19
6.3166291e-18
-1.3209863e-17
4.3950753e-17
-8.5581641e-17
1.3218889e-16
-1.3831442e-16
8.406802e-20
2.055246e-19
2.6076703e-19
3.546024e-19
4.421909e-19
5.4096289e-19
6.7221329e-19
8.0147846e-19
9.2104245e-19
1.0276363e-18
1.4701051e-18
1.0199468e-18
1.61688e-18
3.5764246e-18
-4.347079e-18
1.4569628e-17
-1.0907574e-17
4.9205864e-18
9.2128068e-18
-1.9278735e-18
8.7826729e-20
2.2719012e-19
2.5208495e-19
4.283075e-19
3.7752523e-19
7.1494875e-19
5.1639893e-19
1.1154497e-18
6.1727526e-19
1.5879618e-18
9.1584114e-19
1.7453246e-18
1.6091773e-18
1.8373203e-18
2.2896624e-18
1.5740254e-19
1.3939026e-17
-3.0195467e-17
5.8327628e-17
-6.4992282e-17
9.8097003e-20
2.2752099e-19
3.3735734e-19
3.6692408e-19
5.7858968e-19
5.6621506e-19
8.5971197e-19
8.6235895e-19
1.1473988e-18
1.1882946e-18
1.6666961e-18
1.2789139e-18
2.29268e-18
1.8044449e-18
3.0160461e-18
-1.8403511e-18
2.0262405e-17
-3.908251e-17
6.9021433e-17
-7.1079696e-17
1.0905549e-19
2.5379225e-19
3.6589176e-19
4.3545434e-19
6.0597266e-19
6.9109948e-19
8.9068161e-19
1.0444446e-18
1.2025221e-18
1.4136186e-18
1.7773134e-18
1.5708226e-18
2.1509078e-18
3.5728644e-18
-1.4559173e-18
1.0522002e-17
-4.0404795e-18
4.8949505e-18
4.2877072e-18
1.2232188e-17
1.1948459e-19
3.0106727e-19
3.7261509e-19
5.2963382e-19
5.9514652e-19
8.5801791e-19
8.5306806e-19
1.3030278e-18
1.1297037e-18
1.8044978e-18
1.632206e-18
2.0682427e-18
2.3129029e-18
2.8581009e-18
2.23352e-18
3.1903231e-18
9.2111657e-18
-1.2556443e-17
2.8224647e-17
-1.49131e-17
1.363723e-19
3.0022024e-19
4.8783804e-19
4.9294671e-19
8.2588359e-19
7.7196465e-19
1.2195157e-18
1.1817698e-18
1.6395646e-18
1.6568494e-18
2.2880742e-18
1.9846247e-18
2.8438337e-18
3.5258541e-18
1.6384794e-18
5.5543921e-18
7.3041769e-18
-8.3205635e-18
2.4843794e-17
-8.9460708e-18
1.5140714e-19
3.7370035e-19
5.0033177e-19
6.2998075e-19
8.4880642e-19
9.6159415e-19
1.2941869e-18
1.4028983e-18
1.8003421e-18
1.9083652e-18
2.5546514e-18
2.2706042e-18
3.1732236e-18
4.1571054e-18
1.2489236e-18
8.0415985e-18
4.2304002e-18
-1.2763198e-18
1.6856512e-17
2.6622246e-18
1.7554758e-19
3.8685583e-19
6.1356949e-19
6.638356e-19
1.004687e-18
1.0665998e-18
1.470608e-18
1.623471e-18
1.9875628e-18
2.2993503e-18
2.7002881e-18
2.9092405e-18
3.4014461e-18
4.3189416e-18
3.7754376e-18
3.7359712e-18
1.3284044e-17
-1.0276363e-17
2.7810368e-17
-4.5943596e-18
1.9354703e-19
4.7979123e-19
6.567417e-19
8.0476071e-19
1.133436e-18
1.2056191e-18
1.7607697e-18
1.7387998e-18
2.4685716e-18
2.4147056e-18
3.387973e-18
3.044554e-18
4.1967041e-18
5.1328079e-18
2.5343226e-18
1.1129139e-17
-2.7337459e-18
2.5654722e-17
-2.8253552e-17
7.2488021e-17
2.2965181e-19
4.9739363e-19
8.2061611e-19
8.3379806e-19
1.3845548e-18
1.2733023e-18
2.1280909e-18
1.8312588e-18
3.0184019e-18
2.5393518e-18
4.0739373e-18
3.4166133e-18
4.6558489e-18
6.4664877e-18
1.6353559e-18
1.5339476e-17
-7.8065468e-18
3.6986752e-17
-4.104862e-17
9.0219967e-17
2.5559219e-19
6.2839257e-19
8.5502682e-19
1.1005605e-18
1.4240741e-18
1.7226003e-18
2.1576047e-18
2.5305109e-18
3.0237488e-18
3.5573266e-18
4.0679287e-18
4.678163e-18
5.1559425e-18
6.485996e-18
6.555188e-18
5.6453158e-18
1.7524529e-17
-6.5205126e-18
3.3464419e-17
-4.5022978e-18
3.098023e-19
6.7016188e-19
1.053709e-18
1.1331183e-18
1.8110094e-18
1.6839544e-18
2.8588421e-18
2.3396638e-18
4.1662374e-18
3.1934201e-18
5.6339867e-18
4.3800074e-18
6.6747784e-18
7.3969799e-18
5.7286956e-18
1.1913413e-17
9.2584407e-18
8.2767824e-18
2.1930265e-17
7.1226471e-18
3.4728351e-19
8.0208726e-19
1.1756288e-18
1.4096216e-18
1.9622577e-18
2.199374e-18
2.9965908e-18
3.1898731e-18
4.3057861e-18
4.4177003e-18
5.8277984e-18
5.9967815e-18
7.1249765e-18
8.8796052e-18
7.8566541e-18
1.0802211e-17
1.6643139e-17
9.2564819e-19
3.9642148e-17
-1.1916695e-17
3.98529e-19
9.3401264e-19
1.3327005e-18
1.6456262e-18
2.2252085e-18
2.5490927e-18
3.4291599e-18
3.6566942e-18
4.9836242e-18
5.0307404e-18
6.7747813e-18
6.8645138e-18
8.3964788e-18
9.6407702e-18
1.0811317e-17
8.7011989e-18
2.546631e-17
-7.5130764e-18
5.663744e-17
-2.700611e-17
4.588801e-19
1.053709e-18
1.563464e-18
1.8432496e-18
2.6391958e-18
2.8294077e-18
4.0900045e-18
4.0395531e-18
5.9811114e-18
5.5214372e-18
8.2016083e-18
7.5587103e-18
1.0121832e-17
1.1147801e-17
1.1237904e-17
1.5357872e-17
1.5578154e-17
1.9591237e-17
1.9635547e-17
2.8484924e-17
5.2410164e-19
1.244609e-18
1.7519818e-18
2.230926e-18
2.8937292e-18
3.5130691e-18
4.3853543e-18
5.1357196e-18
6.3398828e-18
7.1020007e-18
8.7204689e-18
9.6536345e-18
1.1007564e-17
1.3300005e-17
1.3828289e-17
1.5428546e-17
2.2431232e-17
1.6733348e-17
3.0215148e-17
2.4981278e-17
5.9165251e-19
1.4177743e-18
1.9964567e-18
2.5244229e-18
3.3213221e-18
3.9429384e-18
5.0682216e-18
5.740607e-18
7.3428227e-18
7.9551217e-18
1.0133637e-17
1.079787e-17
1.2977074e-17
1.4652505e-17
1.6584217e-17
1.6873743e-17
2.6493497e-17
1.6885178e-17
3.9990596e-17
1.9515533e-17
6.7953218e-19
1.6152918e-18
2.2917535e-18
2.8905529e-18
3.8108542e-18
4.5220442e-18
5.8072579e-18
6.5895987e-18
8.4257544e-18
9.1304858e-18
1.1699907e-17
1.2375522e-17
1.5071893e-17
1.692123e-17
1.8681418e-17
2.1283185e-17
2.6127684e-17
2.7053121e-17
3.5753949e-17
3.4562968e-17
7.595768e-19
1.8553198e-18
2.537499e-18
3.3557328e-18
4.1743901e-18
5.3144965e-18
6.2676203e-18
7.873383e-18
8.9478443e-18
1.1098143e-17
1.2345823e-17
1.503727e-17
1.6293738e-17
1.9571226e-17
2.1986222e-17
2.1765888e-17
3.4106523e-17
2.4191049e-17
4.8053026e-17
3.861422e-17
8.4872701e-19
2.0646428e-18
2.8908176e-18
3.6890402e-18
4.7998181e-18
5.7639533e-18
7.3098943e-18
8.41379e-18
1.0581771e-17
1.1753641e-17
1.4720162e-17
1.5934172e-17
1.9422042e-17
2.1222728e-17
2.459879e-17
2.7290766e-17
3.0815588e-17
4.0725979e-17
3.7961158e-17
4.1991235e-17
9.6519404e-19
2.1589811e-18
3.2260309e-18
4.1958836e-18
5.2116878e-18
6.6121509e-18
7.8254198e-18
9.7860893e-18
1.1182423e-17
1.3848353e-17
1.5474763e-17
1.8844048e-17
2.0667498e-17
2.4596249e-17
2.7109819e-17
3.0026259e-17
3.5825153e-17
4.387186e-17
3.98565e-17
3.6398806e-17
1.0223688e-18
2.539193e-18
3.4554709e-18
4.5304616e-18
5.7339895e-18
7.1296881e-18
8.6610178e-18
1.0492409e-17
1.2438467e-17
1.4819371e-17
1.7267825e-17
2.0206818e-17
2.3198432e-17
2.6294761e-17
3.0501974e-17
3.1778135e-17
4.1448075e-17
4.1894885e-17
5.1096098e-17
5.7397811e-17
1.1320595e-18
2.5063705e-18
3.7914254e-18
4.8943681e-18
6.1356949e-18
7.6861887e-18
9.2394354e-18
1.1324089e-17
1.3290265e-17
1.5993676e-17
1.8477071e-17
2.1871767e-17
2.4893345e-17
2.8664442e-17
3.2020281e-17
3.5865493e-17
4.3893353e-17
5.0242395e-17
5.9294953e-17
6.5879364e-17
1.1422239e-18
2.8265489e-18
3.8205421e-18
5.1405371e-18
6.2900667e-18
8.1374455e-18
9.4148771e-18
1.2053702e-17
1.3407473e-17
1.719551e-17
1.8910646e-17
2.3447884e-17
2.5496433e-17
3.0829246e-17
3.2649308e-17
3.711709e-17
4.8270714e-17
5.4574756e-17
6.3438744e-17
7.0410884e-17
1.1468826e-18
2.8099259e-18
3.8744346e-18
5.0643041e-18
6.4173334e-18
7.9414633e-18
9.6796808e-18
1.1691278e-17
1.3716852e-17
1.6954317e-17
1.8251548e-17
2.4206931e-17
2.4579731e-17
3.191546e-17
3.2068138e-17
3.5661675e-17
4.8566857e-17
5.4810443e-17
6.342011e-17
7.0538257e-17
1.0884373e-18
2.6651892e-18
3.6731584e-18
4.8067002e-18
6.086567e-18
7.5404991e-18
9.1780255e-18
1.1074109e-17
1.3075224e-17
1.5836128e-17
1.7497583e-17
2.2577451e-17
2.3874259e-17
3.0260252e-17
2.9699516e-17
3.8864201e-17
4.4838748e-17
5.1025053e-17
5.9577121e-17
6.6707233e-17
9.3639492e-19
2.2944005e-18
3.1630328e-18
4.13945e-18
5.2416516e-18
6.4922958e-18
7.9157347e-18
9.4984157e-18
1.1401487e-17
1.3184068e-17
1.6238257e-17
1.884246e-17
2.2135512e-17
2.6358818e-17
2.5917091e-17
3.3377333e-17
3.8651384e-17
4.4072183e-17
5.1382077e-17
5.7631486e-17
6.6915603e-19
1.6402793e-18
2.2617897e-18
2.9586861e-18
3.747909e-18
4.6411053e-18
5.6628388e-18
6.7785929e-18
8.1973731e-18
9.2699286e-18
1.2038032e-17
1.2724976e-17
1.5586042e-17
2.0701273e-17
1.9418442e-17
2.4772537e-17
2.8419649e-17
3.2259462e-17
3.7430386e-17
4.1960106e-17
2.6088615e-19
6.363335e-19
8.9467855e-19
1.2184569e-18
1.5553642e-18
1.9202237e-18
2.3323052e-18
2.7903383e-18
3.3322276e-18
3.7951311e-18
4.9735657e-18
4.2341059e-18
6.593728e-18
5.9927581e-18
4.2209769e-17
2.5815447e-17
2.4643788e-17
2.58074e-17
2.7702424e-17
2.9670929e-17
4.0046968e-14
8.705678e-14
1.0401285e-13
1.35135e-13
1.6983987e-13
2.0582086e-13
2.4182663e-13
2.774633e-13
3.1120079e-13
3.4294067e-13
3.7209645e-13
3.9867367e-13
4.2243178e-13
4.4339202e-13
4.6146382e-13
4.7680926e-13
4.8957809e-13
5.000644e-13
5.0834208e-13
5.1466053e-13
5.1913221e-13
5.2200236e-13
5.232515e-13
5.2329246e-13
5.220238e-13
5.197236e-13
5.1644958e-13
5.1230463e-13
5.0740572e-13
5.0183913e-13
4.9566648e-13
4.8899825e-13
4.8186771e-13
4.7439253e-13
4.6656896e-13
4.5850111e-13
4.5020635e-13
4.4173109e-13
4.3311361e-13
4.243904e-13
4.1559899e-13
4.0675623e-13
3.9789148e-13
3.8902733e-13
3.8017445e-13
3.7137539e-13
3.6262237e-13
3.5394054e-13
3.2896072e-13
3.2714074e-13
3.2528463e-13
3.2339093e-13
3.2146209e-13
3.1950146e-13
3.1751028e-13
3.1549216e-13
3.1344931e-13
3.1138647e-13
3.092975e-13
3.0719526e-13
3.0507177e-13
3.0293962e-13
3.0078871e-13
2.9863064e-13
2.9645977e-13
2.942844e-13
2.9225228e-13
2.9006389e-13
2.8786712e-13
2.8567073e-13
2.8347522e-13
2.8128064e-13
2.7908807e-13
2.7689807e-13
2.7471239e-13
2.7253139e-13
2.7035625e-13
2.6818768e-13
2.6602693e-13
2.6387423e-13
2.6173093e-13
2.5959702e-13
2.5747453e-13
2.5536128e-13
2.532615e-13
2.5117179e-13
2.4909649e-13
2.4703189e-13
2.4498263e-13
2.4294451e-13
2.4092264e-13
2.3891224e-13
2.3691816e-13
2.3493596e-13
2.3297097e-13
2.3101758e-13
2.2908037e-13
2.2715793e-13
2.2525038e-13
2.23358e-13
2.2148092e-13
2.196193e-13
2.1777289e-13
2.1594177e-13
2.1412536e-13
2.123242e-13
2.1053745e-13
2.0876532e-13
2.0700762e-13
2.0526367e-13
2.0353522e-13
2.0181549e-13
2.00115e-13
1.9842097e-13
1.967465e-13
1.9507672e-13
1.9342637e-13
1.9177913e-13