/*--------------------------------*- C++ -*----------------------------------*\
| =========                 |                                                 |
| \\      /  F ield         | OpenFOAM: The Open Source CFD Toolbox           |
|  \\    /   O peration     | Version:  2406                                  |
|   \\  /    A nd           | Website:  www.openfoam.com                      |
|    \\/     M anipulation  |                                                 |
\*---------------------------------------------------------------------------*/
FoamFile
{
    version     2.0;
    format      ascii;
    arch        "LSB;label=32;scalar=64";
    class       volScalarField;
    location    "2406";
    object      initialResidual:p;
}
// * * * * * * * * * * * * * * * * * * * * * * * * * * * * * * * * * * * * * //

dimensions      [0 0 0 0 0 0 0];

internalField   nonuniform List<scalar> 
69120
(
5.2316294e-13
8.2461089e-13
5.794169e-13
5.6215365e-13
1.3962304e-12
1.6137844e-12
1.5087759e-12
1.6981402e-12
8.2106349e-13
8.1843633e-13
1.3098542e-12
8.4883743e-13
2.1903386e-12
2.0191333e-12
2.4521087e-12
9.6307538e-12
7.0595601e-12
6.6897842e-12
-1.207427e-11
3.1184636e-11
6.8690059e-13
1.0114574e-12
7.8818594e-13
7.4907678e-13
1.7462074e-12
2.0710061e-12
1.9716783e-12
2.2416251e-12
1.1165595e-12
1.0852e-12
1.71046e-12
1.1338638e-12
2.8224726e-12
2.6044877e-12
3.418399e-12
1.1739039e-11
8.9596879e-12
9.0526874e-12
-1.2198023e-11
3.67193e-11
7.2578884e-13
1.0661053e-12
8.1956483e-13
7.7542583e-13
1.8478532e-12
2.1933529e-12
2.066826e-12
2.305347e-12
1.1426765e-12
1.1027773e-12
1.768698e-12
1.1909684e-12
2.9629513e-12
2.7377626e-12
3.7187427e-12
1.2548778e-11
9.559906e-12
9.330513e-12
-1.344817e-11
3.9237196e-11
8.2393453e-13
1.1087605e-12
9.6939005e-13
8.9413476e-13
1.9651599e-12
2.4052485e-12
2.3256137e-12
2.644707e-12
1.3532085e-12
1.2794423e-12
1.9998117e-12
1.3640894e-12
3.2675744e-12
3.0264604e-12
4.2983099e-12
1.2658521e-11
1.0240582e-11
1.0727539e-11
-1.0209308e-11
3.7724498e-11
8.6076711e-13
1.1248886e-12
9.8328228e-13
9.1026768e-13
2.0141326e-12
2.4658617e-12
2.4102149e-12
2.6783192e-12
1.3338741e-12
1.2779511e-12
2.0327326e-12
1.3850068e-12
3.3625158e-12
3.1144384e-12
4.5669832e-12
1.2662554e-11
1.0614151e-11
1.0348115e-11
-1.0171554e-11
3.6890003e-11
9.9237153e-13
1.2182984e-12
1.1815675e-12
1.0629832e-12
2.2019572e-12
2.771977e-12
2.7170087e-12
3.0805873e-12
1.6146042e-12
1.4784176e-12
2.2752608e-12
1.5899888e-12
3.6256017e-12
3.3564959e-12
5.0167732e-12
1.2772523e-11
1.0925585e-11
1.1855229e-11
-7.1062455e-12
3.5573534e-11
1.0248381e-12
1.2245345e-12
1.1855098e-12
1.0479891e-12
2.2411698e-12
2.8157692e-12
2.7162956e-12
2.963698e-12
1.5544537e-12
1.3748078e-12
2.1488139e-12
1.5334679e-12
3.4254964e-12
3.1380594e-12
4.9235775e-12
1.161238e-11
1.0173526e-11
1.0142593e-11
-6.4413551e-12
3.0808423e-11
1.1956325e-12
1.368645e-12
1.4227892e-12
1.2486413e-12
2.4690326e-12
3.154787e-12
3.0820002e-12
3.4490861e-12
1.8306772e-12
1.6034433e-12
2.3879538e-12
1.6816079e-12
3.5818931e-12
3.2750762e-12
4.9491206e-12
1.1173526e-11
9.8475927e-12
1.106041e-11
-3.6874145e-12
2.8481382e-11
1.2259286e-12
1.3515732e-12
1.3797088e-12
1.2214138e-12
2.4281809e-12
3.0554009e-12
2.9786513e-12
3.1314184e-12
1.5818545e-12
1.3480802e-12
2.0078519e-12
1.4048189e-12
2.9426422e-12
2.6404857e-12
4.1682736e-12
8.4576251e-12
7.8462448e-12
7.5895901e-12
-2.8577583e-12
1.9802225e-11
1.4373884e-12
1.5596154e-12
1.6811343e-12
1.4384606e-12
2.7042757e-12
3.4299622e-12
3.2765615e-12
3.5486598e-12
1.8526114e-12
1.5318586e-12
2.1547559e-12
1.4973731e-12
2.9446655e-12
2.6583002e-12
3.946795e-12
8.0891613e-12
7.2828319e-12
8.5535744e-12
-9.6309244e-13
1.8957038e-11
1.4579228e-12
1.5354701e-12
1.6106855e-12
1.3291621e-12
2.5683164e-12
3.1197726e-12
2.8372357e-12
2.7636476e-12
1.3757719e-12
1.0509589e-12
1.4850754e-12
1.0626968e-12
2.0209124e-12
1.8053482e-12
2.950328e-12
5.2348974e-12
5.0940161e-12
4.8914957e-12
-6.4027293e-13
1.0915172e-11
1.7183528e-12
1.7858224e-12
1.9347243e-12
1.5792988e-12
2.782824e-12
3.391746e-12
3.0679921e-12
3.1567404e-12
1.6059925e-12
1.2524038e-12
1.6709113e-12
1.1657483e-12
2.1449951e-12
1.9694569e-12
2.8885532e-12
5.5486453e-12
5.1059258e-12
6.4439735e-12
5.0323557e-13
1.2511409e-11
1.7316228e-12
1.7051367e-12
1.7455928e-12
1.3587252e-12
2.3633791e-12
2.6655194e-12
2.2917482e-12
2.0355855e-12
9.5248594e-13
7.0616348e-13
9.7227717e-13
7.1769211e-13
1.3185433e-12
1.2293432e-12
2.0602697e-12
3.1881415e-12
3.4231533e-12
3.2073087e-12
4.3120025e-13
5.9711864e-12
2.0392768e-12
2.0079599e-12
2.0945084e-12
1.5830069e-12
2.5276698e-12
2.8939717e-12
2.4776477e-12
2.4708036e-12
1.261067e-12
9.6624332e-13
1.2631531e-12
9.0982219e-13
1.6150197e-12
1.5511278e-12
2.2498799e-12
4.1307656e-12
3.9070093e-12
5.2680164e-12
1.1820327e-12
9.1762981e-12
2.0273102e-12
1.8537218e-12
1.7200381e-12
1.1524514e-12
1.8462543e-12
1.9238266e-12
1.5419766e-12
1.2662342e-12
6.3142824e-13
4.4688402e-13
6.2861863e-13
5.2997382e-13
9.1407327e-13
9.1587256e-13
1.6178785e-12
2.2224637e-12
2.5612712e-12
2.4422462e-12
9.2540032e-13
3.7035307e-12
2.3972595e-12
2.1519551e-12
2.0211877e-12
1.3776831e-12
1.9983329e-12
2.2111386e-12
1.8681368e-12
1.8946959e-12
1.0162837e-12
7.829299e-13
1.0240868e-12
7.7859537e-13
1.3370657e-12
1.3529648e-12
1.9443496e-12
3.448814e-12
3.3163822e-12
4.7145895e-12
1.5350082e-12
7.5208977e-12
2.355489e-12
1.818696e-12
1.3936716e-12
8.2227196e-13
1.2359858e-12
1.2388357e-12
1.0283643e-12
8.2243716e-13
4.2897548e-13
3.2651736e-13
4.6765294e-13
4.3423686e-13
7.3160563e-13
7.949806e-13
1.3946056e-12
1.7224908e-12
2.1634893e-12
2.0232899e-12
1.1542478e-12
2.4472936e-12
2.7900823e-12
2.1268686e-12
1.7045885e-12
1.0864217e-12
1.5043786e-12
1.7003466e-12
1.4815942e-12
1.5664715e-12
8.837726e-13
6.9549494e-13
9.110873e-13
7.2377163e-13
1.2117054e-12
1.2873363e-12
1.8113354e-12
3.1167683e-12
3.0426164e-12
4.4544523e-12
1.7631942e-12
6.6172903e-12
2.7090431e-12
1.636468e-12
1.0038945e-12
5.314183e-13
8.4092135e-13
8.6107038e-13
7.3462207e-13
5.677673e-13
3.4804814e-13
2.6227296e-13
3.7733124e-13
4.0394502e-13
6.337717e-13
7.4035085e-13
1.3074493e-12
1.4928497e-12
1.9442045e-12
1.8379123e-12
1.310162e-12
1.7900461e-12
3.2080423e-12
1.9707289e-12
1.3855184e-12
8.7271246e-13
1.2123625e-12
1.4325584e-12
1.2833856e-12
1.4033631e-12
8.3280368e-13
6.5989562e-13
8.6172894e-13
7.1335343e-13
1.1586892e-12
1.2839537e-12
1.771512e-12
2.9674697e-12
2.9145476e-12
4.359502e-12
1.950794e-12
6.1267571e-12
3.0836832e-12
1.4039651e-12
7.2581443e-13
3.8103694e-13
6.417521e-13
6.7946051e-13
6.0765686e-13
4.5832234e-13
2.9975322e-13
2.4355092e-13
3.4046825e-13
3.8917217e-13
5.9768123e-13
7.4141449e-13
1.2597247e-12
1.3413269e-12
1.8437628e-12
1.6997923e-12
1.3812665e-12
1.34229e-12
3.6534377e-12
1.8131003e-12
1.1967345e-12
7.6655442e-13
1.0724879e-12
1.312461e-12
1.2049884e-12
1.3439151e-12
8.2360158e-13
6.5632229e-13
8.4929961e-13
7.2340607e-13
1.1465761e-12
1.3167492e-12
1.7756473e-12
2.9014529e-12
2.8662631e-12
4.3369746e-12
2.1115956e-12
5.8446257e-12
3.4822002e-12
1.2354594e-12
5.9557584e-13
3.0805167e-13
5.6270714e-13
6.1031033e-13
5.5223178e-13
4.0236724e-13
2.927152e-13
2.3812832e-13
3.1619821e-13
3.9484088e-13
5.7087771e-13
7.4430399e-13
1.2598285e-12
1.2767097e-12
1.7673312e-12
1.6452879e-12
1.4606144e-12
1.1059457e-12
4.1452504e-12
1.7422418e-12
1.1278064e-12
7.2769817e-13
1.0223489e-12
1.2768632e-12
1.1860564e-12
1.332039e-12
8.4412943e-13
6.6695999e-13
8.5204594e-13
7.4675916e-13
1.1529045e-12
1.363227e-12
1.8095602e-12
2.8893343e-12
2.855554e-12
4.3658629e-12
2.2662447e-12
5.7089541e-12
3.9548613e-12
1.210479e-12
5.7037549e-13
2.8636948e-13
5.3765754e-13
5.8981739e-13
5.4225036e-13
3.8495847e-13
2.9571116e-13
2.4566887e-13
3.0819789e-13
4.0336367e-13
5.7194857e-13
7.7264464e-13
1.2572886e-12
1.2121532e-12
1.74307e-12
1.5846027e-12
1.4734434e-12
9.3327779e-13
4.7126474e-12
1.7776175e-12
1.1398086e-12
7.3371519e-13
1.0218906e-12
1.2856838e-12
1.2037937e-12
1.3481451e-12
8.7906347e-13
6.8636059e-13
8.6379341e-13
7.7501573e-13
1.1748087e-12
1.4203791e-12
1.8581067e-12
2.9068346e-12
2.8748032e-12
4.415738e-12
2.4098811e-12
5.6640463e-12
4.4598575e-12
1.28165e-12
5.8581816e-13
3.0028913e-13
5.4746362e-13
6.0384055e-13
5.5345685e-13
3.761808e-13
3.1609741e-13
2.5719691e-13
2.9746952e-13
4.1871802e-13
5.6682561e-13
7.8246638e-13
1.2889042e-12
1.1957329e-12
1.7102322e-12
1.5788335e-12
1.5231784e-12
8.8001567e-13
5.3162665e-12
1.9388751e-12
1.2142538e-12
7.7230101e-13
1.0573981e-12
1.3272666e-12
1.244196e-12
1.3789169e-12
9.2619025e-13
7.0842986e-13
8.7918001e-13
8.0640317e-13
1.2081138e-12
1.4849686e-12
1.924191e-12
2.9561749e-12
2.915154e-12
4.4910745e-12
2.5637354e-12
5.705744e-12
4.9715619e-12
1.5056862e-12
7.0373207e-13
3.2625674e-13
5.9372595e-13
6.414347e-13
5.8577582e-13
3.8242509e-13
3.3634373e-13
2.7497181e-13
2.959992e-13
4.3307047e-13
5.8680579e-13
8.1204098e-13
1.3059987e-12
1.1873056e-12
1.7175484e-12
1.5525109e-12
1.517778e-12
8.7059774e-13
5.8142556e-12
2.2821488e-12
1.3459427e-12
8.4078122e-13
1.1265135e-12
1.4017473e-12
1.3061445e-12
1.4260968e-12
9.8141565e-13
7.3319834e-13
9.0106221e-13
8.3750714e-13
1.2597622e-12
1.5652331e-12
2.0080407e-12
3.0235797e-12
2.9842697e-12
4.5903508e-12
2.7255612e-12
5.8074662e-12
5.1520874e-12
2.0279554e-12
8.3569227e-13
4.1110561e-13
6.5142005e-13
6.9684411e-13
6.3288725e-13
4.0116875e-13
3.7083904e-13
2.8993572e-13
2.9681534e-13
4.5166926e-13
6.1484934e-13
8.5205479e-13
1.3591792e-12
1.2090687e-12
1.7376189e-12
1.5800798e-12
1.5692079e-12
9.526831e-13
5.9679423e-12
2.9703571e-12
1.5509551e-12
9.2866244e-13
1.2282055e-12
1.5141937e-12
1.3948309e-12
1.4902015e-12
1.0490075e-12
7.6388716e-13
9.2905048e-13
8.7011769e-13
1.3280516e-12
1.6535689e-12
2.1228176e-12
3.1097167e-12
3.0735015e-12
4.7340735e-12
2.9209517e-12
5.9688755e-12
4.9714411e-12
2.8604941e-12
1.132427e-12
4.9402294e-13
7.8652414e-13
8.2863148e-13
6.9462579e-13
4.2916909e-13
4.074847e-13
3.1433956e-13
3.0782252e-13
4.6715105e-13
6.6809786e-13
9.0492505e-13
1.433503e-12
1.2339865e-12
1.7840178e-12
1.6491899e-12
1.6073567e-12
1.0466491e-12
5.6714217e-12
4.1631027e-12
1.9164436e-12
1.0614035e-12
1.3636716e-12
1.6695065e-12
1.5172135e-12
1.5738607e-12
1.1345388e-12
8.0774675e-13
9.6696913e-13
9.0639565e-13
1.4187026e-12
1.7485761e-12
2.2612958e-12
3.2103637e-12
3.1826211e-12
4.9176051e-12
3.1436958e-12
6.187188e-12
4.2602321e-12
3.8521182e-12
1.6716275e-12
6.7005876e-13
9.3096964e-13
9.6639656e-13
8.2496533e-13
4.9516487e-13
4.5742908e-13
3.5356994e-13
3.2555382e-13
4.920246e-13
7.3657071e-13
9.5156374e-13
1.5417969e-12
1.2880432e-12
1.8427194e-12
1.7594039e-12
1.7127275e-12
1.1991548e-12
4.9891226e-12
4.9719531e-12
2.6133617e-12
1.2698167e-12
1.5856347e-12
1.8743496e-12
1.6750472e-12
1.6907112e-12
1.2453126e-12
8.6981118e-13
1.0185399e-12
9.52875e-13
1.5302246e-12
1.8506403e-12
2.4251579e-12
3.3364283e-12
3.3043734e-12
5.1420245e-12
3.4141541e-12
6.4648087e-12
3.397499e-12
3.6382648e-12
2.6695885e-12
9.079242e-13
1.1723559e-12
1.2040745e-12
9.6293492e-13
5.5554136e-13
5.5342797e-13
4.0403775e-13
3.5268159e-13
5.2312521e-13
8.3638211e-13
1.0135538e-12
1.6513259e-12
1.3525801e-12
1.9234255e-12
1.9205962e-12
1.8260519e-12
1.4204183e-12
4.1485144e-12
4.6094138e-12
4.3361019e-12
1.6729657e-12
1.8046964e-12
2.1568733e-12
1.8863836e-12
1.8567626e-12
1.3833174e-12
9.5207665e-13
1.0884728e-12
1.0134295e-12
1.6702412e-12
1.9700086e-12
2.6149836e-12
3.4935854e-12
3.4445575e-12
5.3992786e-12
3.7334633e-12
6.7473149e-12
2.4015998e-12
2.7594075e-12
3.9880229e-12
1.666883e-12
1.6868442e-12
1.4806099e-12
1.1775966e-12
7.3483407e-13
6.4364029e-13
4.9109394e-13
4.1608523e-13
5.6887948e-13
9.4587808e-13
1.0846677e-12
1.8090005e-12
1.4623047e-12
2.0027958e-12
2.1100793e-12
2.0347229e-12
1.551639e-12
3.3251338e-12
3.6439147e-12
4.8930397e-12
2.8059952e-12
2.4645654e-12
2.6644926e-12
2.2225518e-12
2.0822212e-12
1.5541584e-12
1.0587906e-12
1.1848538e-12
1.0926225e-12
1.8554719e-12
2.1149886e-12
2.8500378e-12
3.7003303e-12
3.6170071e-12
5.6844693e-12
4.1364488e-12
6.8415169e-12
1.6355606e-12
1.8213544e-12
3.1271519e-12
2.6567432e-12
2.3307524e-12
2.1974191e-12
1.715923e-12
9.5990165e-13
7.9602848e-13
6.0427953e-13
4.7534336e-13
6.4651657e-13
1.1013868e-12
1.1784305e-12
1.9840756e-12
1.6107388e-12
2.1362533e-12
2.3146943e-12
2.2908498e-12
1.5073645e-12
2.6373486e-12
2.9551213e-12
4.0811323e-12
3.7803411e-12
3.780531e-12
3.3958821e-12
2.7146444e-12
2.3806623e-12
1.7808425e-12
1.234158e-12
1.3049903e-12
1.200514e-12
2.1131487e-12
2.2958853e-12
3.163098e-12
3.9687053e-12
3.8633354e-12
5.9936708e-12
4.6553891e-12
7.54719e-12
9.4840744e-13
1.116493e-12
2.0738885e-12
2.4737031e-12
4.1141735e-12
3.9505809e-12
2.2379665e-12
1.3223842e-12
1.0398358e-12
7.783555e-13
6.1023374e-13
7.2937338e-13
1.3661726e-12
1.3295561e-12
2.2348493e-12
1.8099753e-12
2.3592181e-12
2.5062867e-12
2.7252629e-12
1.8666999e-12
2.0957839e-12
2.364697e-12
3.1427092e-12
3.1348874e-12
5.4098039e-12
6.1432389e-12
3.8448503e-12
2.7997793e-12
2.1610562e-12
1.4859805e-12
1.4515642e-12
1.3547713e-12
2.4659771e-12
2.534031e-12
3.6002828e-12
4.2965839e-12
4.2767727e-12
6.3288011e-12
5.3629313e-12
4.9802399e-12
5.0352137e-13
5.5587287e-13
1.2545516e-12
8.8415506e-13
4.5116561e-12
6.3171284e-12
3.7181919e-12
2.2153548e-12
1.5558652e-12
1.0561451e-12
7.6606351e-13
9.3331563e-13
1.7039402e-12
1.4841253e-12
2.6869371e-12
2.1280683e-12
2.730436e-12
2.8023783e-12
3.3026123e-12
-4.8671075e-12
1.5957632e-12
1.9803468e-12
2.5327965e-12
2.6836679e-12
5.0223176e-12
7.61184e-12
4.8188379e-12
4.7121817e-12
2.6929988e-12
1.8639121e-12
1.6747126e-12
1.6424698e-12
2.9741202e-12
2.7754651e-12
4.2727359e-12
4.7877706e-12
4.7231781e-12
6.1882048e-12
6.5349856e-12
1.4647215e-11
6.0095495e-14
2.4780987e-13
6.0494018e-13
1.8497792e-12
2.163601e-12
4.8842306e-12
6.0021404e-12
4.423802e-12
2.1829145e-12
1.522634e-12
1.0694629e-12
1.212177e-12
2.2597756e-12
1.5344367e-12
3.7732708e-12
1.9130675e-12
3.8849133e-12
-4.4173158e-13
5.91832e-12
2.7678869e-11
1.4144488e-12
1.5640398e-12
2.0509941e-12
2.0623508e-12
3.5184676e-12
6.2421738e-12
8.9636943e-12
6.6023523e-12
3.9153814e-12
2.6436767e-12
2.0238635e-12
2.0489474e-12
3.4141313e-12
3.0596927e-12
6.2188759e-12
1.9637828e-12
1.151228e-11
-6.3632063e-14
1.0332816e-11
2.67105e-11
-2.7329234e-14
-8.3383719e-14
1.3569515e-13
5.9782012e-13
1.8614439e-12
3.3400751e-12
5.2421594e-12
4.1633958e-12
4.1003107e-12
3.3200819e-12
2.2245949e-12
1.9981814e-12
1.2780052e-12
4.3915149e-12
2.2722122e-12
-3.1906985e-12
2.0480136e-11
1.6785977e-11
-1.2695597e-11
7.4344957e-12
1.0424409e-12
1.4503665e-12
1.6670898e-12
1.8403235e-12
2.9633433e-12
4.6225076e-12
6.4341204e-12
7.2232065e-12
6.5754389e-12
5.2442242e-12
3.2215446e-12
2.5870626e-12
4.345353e-12
7.203615e-12
-1.3022721e-12
2.2528331e-11
-1.4953374e-11
4.2612863e-11
-9.7736802e-12
1.5232306e-11
-3.0720248e-13
-2.1600401e-13
4.2921246e-14
2.7070524e-13
1.1202511e-12
1.818526e-12
3.7533691e-12
4.0380032e-12
4.3959191e-12
5.2198855e-12
3.0551552e-12
2.4236054e-12
6.2944607e-12
3.9274152e-12
1.469041e-12
2.4182265e-11
-2.9481471e-11
1.6836553e-11
1.4620726e-11
1.7131246e-11
1.0692264e-12
9.8718353e-13
1.5556661e-12
1.4889291e-12
3.9259003e-12
2.7750119e-12
5.2080305e-12
4.2421742e-12
6.7228577e-12
5.7022062e-12
6.6956431e-12
3.3332449e-12
8.1515815e-12
4.9045268e-12
9.5960559e-12
4.7435433e-12
1.4105176e-11
3.1103154e-12
1.7770674e-11
2.5310407e-11
-3.703044e-13
-2.7472073e-13
-5.1190669e-13
3.5827652e-13
1.147284e-12
6.1626509e-13
2.4592986e-12
1.9289502e-12
3.2657994e-12
3.8989499e-12
1.5385601e-11
1.9416442e-12
8.1932264e-12
6.5403241e-12
7.5448967e-12
6.8132441e-12
1.0346717e-11
8.2496014e-12
1.2114318e-11
1.9218914e-11
9.097338e-13
8.2162154e-13
1.1990835e-12
1.2456987e-12
2.3453056e-12
2.9066077e-12
4.6928636e-12
5.0165892e-12
3.9805247e-12
9.4959047e-12
4.5239701e-12
5.3905488e-12
1.6627849e-11
1.3173659e-11
8.8804575e-12
1.6560872e-11
8.394785e-12
2.10445e-11
1.6181245e-11
3.1477682e-11
-3.9163667e-13
-3.9997652e-13
-5.6987436e-13
7.5670563e-14
-6.3503847e-14
1.119775e-12
2.4928985e-12
5.0782512e-14
3.2399641e-12
3.7863227e-12
-9.8044554e-12
1.3190665e-11
1.9427968e-11
1.948838e-11
9.8995935e-12
2.2861778e-11
3.5024516e-12
2.5870894e-11
1.5782758e-11
3.3632938e-11
6.6063303e-13
8.8693041e-13
7.8500819e-13
1.6632468e-12
1.2683983e-12
3.2911265e-12
4.042393e-12
3.154942e-12
5.0742651e-12
2.4830853e-12
4.4756598e-12
1.3445498e-11
2.0627786e-11
2.2107346e-11
1.7637437e-11
4.2030048e-11
-2.2709642e-12
4.1754787e-11
2.6023716e-11
5.1751992e-11
-3.5188838e-13
-5.5427379e-13
-3.2903565e-13
-4.0392416e-13
3.3937827e-13
7.6071006e-13
1.1352264e-12
7.4001169e-13
1.1550755e-12
2.7601467e-12
4.7900512e-12
2.7916054e-12
1.5727513e-11
-1.4720173e-12
2.4482761e-11
6.7826664e-11
2.4552718e-12
3.8906313e-11
3.0671748e-11
6.2320155e-11
5.0789668e-13
7.8530252e-13
6.1801558e-13
1.328496e-12
1.1842997e-12
2.3021988e-12
3.515007e-12
3.3745173e-12
4.0245222e-12
4.3846476e-12
4.264757e-12
2.8045942e-12
1.6441261e-11
-3.0239764e-12
6.7630377e-11
5.5101694e-11
2.3121978e-10
-2.2871696e-12
2.264238e-11
9.7028486e-11
-3.9322018e-13
-5.3495628e-13
-6.2789093e-13
-3.5608942e-13
7.510102e-13
2.8494034e-13
7.0398039e-13
3.1547031e-14
8.7689242e-13
1.7744059e-12
1.8712214e-12
3.6127637e-12
9.2521293e-12
9.108224e-12
6.1796738e-11
-1.6717647e-11
4.7392313e-11
2.163694e-10
3.3258804e-11
1.5666312e-10
4.5376376e-13
4.7835155e-13
6.0317348e-13
8.9775568e-13
8.1360531e-13
2.3636299e-12
3.0578256e-12
3.1216435e-12
3.137154e-12
4.6876076e-12
2.4636008e-12
7.2233939e-12
8.0102207e-12
2.3637967e-11
9.7793774e-12
-1.1114951e-11
-1.4888166e-10
3.2772413e-10
5.9886487e-11
3.1360255e-10
-5.1765931e-13
-4.3850562e-13
-6.9424613e-13
-4.0879388e-13
-8.2285325e-13
5.4589531e-13
8.4467297e-13
-2.8056463e-13
1.1470075e-12
4.7402132e-13
3.5630652e-12
-7.636281e-13
1.362617e-11
-3.4094393e-12
2.4940728e-11
-1.8510816e-11
1.5284315e-10
-5.3107572e-11
2.4886429e-10
2.1541261e-10
3.755525e-13
2.8694377e-13
5.1891353e-13
5.3708952e-13
1.5259551e-12
1.7607076e-12
2.4331228e-12
2.5228424e-12
2.5782767e-12
4.2618817e-12
2.2344184e-12
6.2529159e-12
7.827005e-12
1.7563264e-11
3.1144907e-12
5.233516e-11
1.1182317e-11
2.9884997e-11
1.0620113e-10
5.1253597e-10
-4.550956e-13
-4.1107059e-13
-7.8226335e-13
-3.1707833e-13
-5.2927741e-13
-3.6962505e-13
1.2952963e-13
-1.9061426e-13
2.2011166e-13
1.1843471e-12
1.0874044e-12
3.2499832e-12
3.4522735e-12
8.314518e-12
2.0022882e-12
3.7696448e-11
-4.3517036e-11
1.4055425e-10
-9.2699441e-11
8.4449999e-10
2.3630881e-13
3.0672975e-13
3.2205495e-13
6.0676598e-13
1.0405957e-12
1.2290175e-12
2.3253326e-12
1.6462596e-12
3.2389243e-12
2.0340784e-12
5.5784915e-12
-3.7247015e-13
1.7505713e-11
-2.58357e-12
3.1438028e-11
5.6837237e-12
1.9275909e-11
6.991584e-11
6.4429864e-11
1.3756262e-10
-3.2688659e-13
-4.8598176e-13
-4.3666549e-13
-5.8488581e-13
-4.2047518e-13
-5.4683972e-13
-3.0619675e-13
-2.3795137e-13
-8.6826348e-13
2.168939e-12
-1.7636296e-12
7.1763062e-12
-5.784648e-12
2.146899e-11
-2.7365211e-11
6.9767576e-11
-8.0789184e-11
1.4209943e-10
-9.3180239e-11
-5.589784e-11
1.475365e-13
4.1512689e-13
2.0682685e-13
7.0866066e-13
7.5128618e-13
1.0855621e-12
1.8476657e-12
1.071806e-12
2.846897e-12
1.4528745e-12
5.4125352e-12
-1.7347209e-13
1.4513663e-11
7.9347621e-13
2.1762182e-11
5.4514467e-12
3.7047396e-11
1.7525199e-12
3.4465521e-11
1.6569622e-10
-1.7187764e-13
-3.2131036e-13
-2.4867888e-13
-4.1679493e-13
-4.4301742e-13
-6.2179155e-13
-3.7507938e-13
-5.8251871e-13
-7.1900145e-13
6.7421885e-13
3.4403972e-13
2.3443634e-12
1.9000507e-12
1.6176237e-12
8.9895017e-12
-9.761296e-12
5.4400029e-11
-7.8619061e-11
1.4492075e-10
-6.8496897e-11
2.3209418e-13
3.4117268e-13
4.1546799e-13
5.7529225e-13
7.8316276e-13
9.4782628e-13
1.3778929e-12
1.197383e-12
1.4097078e-12
2.5966932e-12
1.9888445e-12
4.8637495e-12
3.2629548e-12
1.8437671e-11
-1.2224128e-11
5.1333928e-11
-2.2822958e-11
3.7315866e-11
6.1368884e-11
-3.5372127e-11
-7.4021689e-14
-9.8981507e-15
-1.5297834e-13
-4.5721577e-14
-4.3318444e-13
-3.3285415e-13
-4.8822035e-13
-7.6356571e-13
-4.5751638e-13
-6.1824845e-13
1.4250701e-12
-2.1305556e-13
3.6989089e-12
-1.8181479e-12
5.0121366e-12
3.131606e-12
1.1037294e-11
-1.4636405e-11
6.5749341e-11
-4.6257809e-11
3.1408605e-13
3.0114078e-13
5.360793e-13
5.3675773e-13
8.3024754e-13
8.9386891e-13
1.1747443e-12
1.096994e-12
1.0283454e-12
2.1264194e-12
1.6935922e-12
3.3479685e-12
5.0921293e-12
8.9105413e-12
6.7497158e-12
1.0374039e-11
2.9758632e-11
-2.1007701e-11
9.1191557e-11
-3.5621224e-11
1.0188916e-13
1.2848334e-13
1.3729868e-13
7.7148373e-14
-8.2494151e-14
-1.6300455e-13
-3.3698482e-13
-4.4941697e-13
-8.13036e-13
1.9508329e-14
-2.2827952e-13
2.3566804e-12
-3.0323753e-12
8.4549496e-12
-1.4134417e-11
2.4506171e-11
-1.7984892e-11
1.3096349e-11
2.3868191e-11
-7.1976377e-12
3.1126366e-13
3.6209775e-13
4.5882986e-13
6.4019642e-13
7.1062805e-13
9.6598385e-13
1.0665463e-12
1.0253466e-12
1.1773652e-12
1.2823611e-12
2.193602e-12
1.3118519e-12
5.946012e-12
5.2066328e-12
7.0257459e-12
1.0945613e-11
1.6355781e-11
-5.1603059e-13
5.4401942e-11
-5.2873413e-12
2.7613471e-13
1.6887659e-13
3.8420689e-13
1.6216731e-13
2.3440987e-13
4.4027818e-14
-1.0355775e-13
-8.9913351e-14
-6.2516897e-13
1.0286202e-13
-4.6977234e-13
2.1843918e-12
-3.4618325e-12
4.499343e-12
-7.7700375e-12
8.8147743e-12
-2.2601101e-13
-1.0098717e-11
3.6513848e-11
-2.3421957e-11
2.7777498e-13
2.9104074e-13
4.2103491e-13
5.3375981e-13
7.1569668e-13
8.3768932e-13
1.0399414e-12
1.1006235e-12
1.0574726e-12
1.5070173e-12
1.1795283e-12
2.6837382e-12
1.3126587e-12
1.0476668e-11
-4.285715e-12
2.1228384e-11
2.2107935e-12
7.4351218e-12
4.0822771e-11
9.0692623e-13
3.2290118e-13
1.8444613e-13
4.8156881e-13
2.9948778e-13
3.9602461e-13
2.8510463e-13
1.0630027e-13
2.2910283e-13
-2.587091e-13
1.8847839e-13
-8.4536773e-14
1.4066754e-12
-2.4393673e-12
9.5012767e-13
-3.3176567e-12
-3.4346225e-12
1.1409713e-11
-2.3201478e-11
3.5349523e-11
-2.1373666e-11
2.2346941e-13
1.3403596e-13
4.0322225e-13
3.9710071e-13
6.8878708e-13
6.3531079e-13
1.0188773e-12
1.0394788e-12
1.1306276e-12
1.5770256e-12
1.1319576e-12
2.7205837e-12
7.3425159e-13
8.5451935e-12
-2.6602639e-12
1.6660042e-11
-4.4805237e-12
2.7196033e-11
-8.2686867e-12
5.7617553e-11
1.9637081e-13
9.2131151e-14
5.042824e-13
3.0052342e-13
6.1943108e-13
3.2786217e-13
4.2135817e-13
4.3746622e-13
-3.3496133e-14
8.8570553e-13
-7.6758366e-13
3.3019882e-12
-5.8543627e-12
6.5509008e-12
-1.4010216e-11
1.3570468e-11
-2.1622151e-11
2.3766547e-11
-3.2694669e-11
4.883259e-11
2.3627311e-13
5.4486787e-14
3.9007107e-13
3.2927301e-13
5.4021382e-13
5.4238302e-13
8.3961721e-13
9.6855628e-13
1.2584793e-12
1.412749e-12
1.7999786e-12
1.9007227e-12
2.3973004e-12
3.6181947e-12
6.2259174e-12
-3.0181297e-12
2.4703377e-11
-2.147389e-11
4.6061526e-11
-1.1869386e-11
1.5181558e-13
1.1235062e-13
5.1463692e-13
2.9008702e-13
7.4706386e-13
3.2348608e-13
7.3275183e-13
5.3627249e-13
3.4958102e-13
1.2631313e-12
-6.8716884e-13
3.8280461e-12
-5.8859308e-12
7.3647981e-12
-1.3371483e-11
9.0279268e-12
-1.0328498e-11
-6.8415308e-12
1.440605e-11
-2.5807626e-11
4.150804e-13
8.6316973e-14
5.078897e-13
1.686759e-13
5.7687039e-13
3.3102317e-13
7.7720067e-13
8.401194e-13
1.1465631e-12
1.6975076e-12
1.3189368e-12
3.2819222e-12
1.6617042e-13
7.1800075e-12
-3.0735442e-13
6.3150181e-12
9.388885e-12
-9.0142774e-12
3.6223038e-11
-2.4246154e-11
2.3384201e-13
1.696911e-13
2.6803483e-13
3.2284083e-13
4.9892736e-13
4.9660347e-13
7.7392289e-13
7.2287401e-13
8.2402265e-13
1.0601888e-12
5.6173273e-13
2.2482857e-12
-1.7822842e-12
1.8596796e-12
-1.1136951e-12
-9.0792643e-12
1.4597612e-11
-3.4021671e-11
3.7317984e-11
-5.2214093e-11
3.8745614e-13
-4.3537139e-14
5.4140291e-13
3.0578011e-14
6.8432943e-13
8.5815799e-14
8.5950271e-13
5.9519232e-13
1.0458061e-12
1.7200884e-12
8.9921734e-13
4.1337136e-12
-1.1707616e-12
9.095417e-12
-3.1395795e-12
1.0674426e-11
1.5487462e-13
8.9682606e-12
3.0608778e-12
1.0471301e-11
2.6837921e-13
2.3016991e-13
2.1720719e-13
2.9964406e-13
2.6137676e-13
4.8754178e-13
6.2416694e-13
8.5460569e-13
9.882968e-13
1.1681053e-12
1.0877304e-12
2.031981e-12
-2.5640856e-13
1.8827531e-12
5.6872736e-13
-5.7545069e-12
7.388193e-12
-1.276318e-11
2.924755e-12
-1.1780993e-11
3.7755533e-13
1.1512769e-13
4.25729e-13
1.3819737e-13
5.3220401e-13
2.2230934e-13
7.0767643e-13
4.3983164e-13
9.9058494e-13
1.2673109e-12
1.4287327e-12
2.6612957e-12
1.2878342e-12
4.5015411e-12
4.3051651e-12
9.4761424e-14
1.4890049e-11
-6.3514149e-12
1.8613388e-11
-7.8308242e-12
3.9378894e-13
2.3938565e-13
4.0653033e-13
2.6013008e-13
3.8216603e-13
3.0760693e-13
4.8874778e-13
6.5950802e-13
9.659204e-13
1.3548098e-12
1.1495273e-12
2.6644388e-12
-2.578265e-13
4.256569e-12
-1.0797774e-12
1.7208781e-12
1.9134158e-12
-1.9209225e-12
8.3049073e-13
-1.4495624e-11
3.3510901e-13
4.1458361e-13
3.2336638e-13
4.1414109e-13
3.1996202e-13
4.8927429e-13
4.2685275e-13
6.3697062e-13
7.9656731e-13
1.149785e-12
1.6754859e-12
1.4274654e-12
3.1641836e-12
1.0666117e-12
9.039199e-12
-4.2378607e-12
2.0272877e-11
-6.7745072e-12
2.0890946e-11
-1.6371989e-11
3.4900882e-13
4.2234164e-13
5.0848925e-13
2.8442591e-13
5.8434566e-13
3.3961805e-13
5.3650184e-13
5.8452393e-13
1.1400165e-12
1.2860115e-12
1.5101985e-12
2.4731985e-12
1.0052923e-12
4.1980553e-12
9.5888534e-13
5.608447e-12
6.0261839e-13
1.0473749e-11
-1.2131937e-11
-3.6131186e-11
3.620876e-13
5.3527546e-13
3.0612628e-13
6.5600063e-13
4.4160533e-13
6.7333426e-13
5.5108393e-13
1.0232351e-12
8.8552455e-13
1.2484014e-12
1.5697241e-12
1.4554865e-12
2.8717993e-12
1.9003453e-12
6.9926431e-12
2.5206523e-12
1.2667033e-11
5.4166164e-12
-1.5008597e-11
6.3710102e-12
4.0701115e-13
4.8570421e-13
5.3174961e-13
6.3862668e-13
6.3454707e-13
7.4944872e-13
6.2991576e-13
8.7764775e-13
8.1206724e-13
1.236954e-12
1.565613e-12
1.8511773e-12
2.9724636e-12
2.6443788e-12
6.0707659e-12
4.5517458e-12
5.2516992e-12
-1.272022e-11
2.2950968e-11
-4.1344997e-12
4.5814719e-13
7.1777105e-13
4.5420432e-13
7.5773173e-13
6.2611753e-13
7.6457524e-13
6.7377959e-13
9.0111932e-13
9.6687475e-13
1.2407702e-12
1.6047363e-12
1.7856709e-12
2.5133217e-12
3.757114e-12
4.1881602e-12
1.395556e-11
-1.082437e-11
1.8182649e-11
2.9475569e-11
-1.8669571e-11
5.0591096e-13
7.0684471e-13
4.5900115e-13
1.0408144e-12
4.7209155e-13
1.1955217e-12
4.549913e-13
1.4888216e-12
3.9159198e-13
1.6173437e-12
1.4130845e-12
1.8286058e-12
3.713801e-12
2.753822e-12
8.3867962e-12
8.3311313e-12
1.0915582e-11
1.8531705e-11
1.801642e-11
-3.1708766e-11
5.4356971e-13
7.3698443e-13
6.6260092e-13
8.32586e-13
8.2308932e-13
9.3269141e-13
1.0765029e-12
1.009701e-12
1.3526291e-12
1.9792972e-12
9.5442725e-13
1.752397e-12
4.9173782e-12
5.3315844e-13
1.4334978e-11
-2.6693603e-12
1.688235e-11
2.1761015e-11
2.3570752e-11
-3.0335025e-11
6.2748844e-13
7.914746e-13
6.8858124e-13
8.7270758e-13
8.2193621e-13
1.0714973e-12
1.1880644e-12
1.2871929e-12
1.7413722e-12
6.1778588e-13
3.6659624e-12
2.0381488e-12
4.1352758e-12
1.4338412e-12
1.5049756e-11
-1.7785669e-12
1.7687318e-11
2.5358069e-11
2.9966215e-11
-3.6581732e-11
5.3615462e-13
7.4776079e-13
6.5354317e-13
9.0083351e-13
8.2197447e-13
1.1793011e-12
1.2815163e-12
1.4674435e-12
2.113706e-12
1.3084932e-12
4.3465776e-12
2.2921825e-12
2.6978644e-12
5.2697563e-12
7.5972967e-12
1.9406303e-11
1.6714106e-11
2.1826348e-11
3.1516997e-11
-4.4854398e-11
5.6408797e-13
7.8385636e-13
6.728976e-13
9.1630605e-13
7.9534571e-13
1.2470654e-12
1.2787949e-12
1.7296504e-12
2.4280624e-12
2.140981e-12
6.0117688e-12
1.1713593e-12
3.4886151e-12
4.3338023e-12
4.7042015e-12
2.6272478e-11
1.7924645e-11
2.2695767e-11
3.7203291e-11
-5.0071515e-11
4.5834083e-13
6.4748727e-13
5.8848152e-13
8.1858739e-13
6.3509094e-13
1.3405301e-12
9.9241533e-13
2.1780954e-12
1.8310752e-12
3.3441696e-12
3.2986236e-12
1.8035355e-12
9.5601131e-12
7.0222968e-12
-4.1339683e-12
2.4657003e-11
2.0759088e-11
2.5010284e-11
4.0649467e-11
-5.9648292e-11
4.9626521e-11
-3.5144887e-11
5.1529951e-12
1.0000817e-11
3.012143e-12
8.6376229e-12
-3.9582498e-13
1.0618555e-11
-2.4055206e-13
5.1201436e-11
-4.6327756e-11
5.955928e-11
-4.6158759e-11
-7.1548718e-12
2.0493707e-12
2.6848084e-13
-1.1354943e-13
-2.1650557e-12
5.3633551e-14
-1.8621319e-12
-1.8771034e-12
3.7034269e-11
-3.9595068e-11
3.7759833e-11
-3.1938158e-11
-5.6922827e-12
-1.1379195e-12
1.3315584e-14
-1.2087749e-13
-2.3483649e-13
-5.8793551e-13
2.2028966e-11
-2.270845e-11
1.7687213e-11
-1.9069604e-11
-1.6366851e-13
-4.7111356e-13
-3.3031718e-13
6.5630685e-13
-2.9747162e-12
1.3413087e-12
-1.7514589e-12
-2.9618627e-13
9.3315533e-12
-1.0650553e-11
8.7965722e-12
-8.2502976e-12
-2.6472932e-13
-3.0423387e-13
-1.8659347e-13
6.6941317e-15
3.8629429e-13
-8.1153328e-13
8.2908107e-14
-1.1251219e-12
2.5657027e-13
-7.8167151e-13
5.7043091e-12
-3.6062649e-12
2.7680399e-12
-5.2960453e-12
3.8640486e-12
-3.8651113e-12
4.7828139e-12
-2.4387621e-12
2.5643374e-12
-3.7980377e-12
3.8182863e-12
-2.1081388e-12
-1.1740734e-13
6.3572801e-13
2.857383e-13
3.0913711e-13
-1.5906105e-14
3.8191598e-13
3.7185796e-14
1.7365024e-13
-1.9668942e-13
2.9749349e-13
-4.669111e-14
3.8744922e-13
3.8144184e-14
2.5406308e-12
-1.1601552e-12
2.3747373e-12
-1.1991696e-12
2.036302e-12
-1.3801916e-12
1.9667189e-12
-1.4807716e-12
2.272211e-12
-1.3544444e-12
1.9360274e-12
-1.9194696e-12
3.073858e-12
-1.0289494e-12
-8.8426886e-15
2.1350177e-13
4.9449387e-14
1.6273757e-13
1.2618006e-14
1.0890053e-13
-2.2289035e-13
-1.3634277e-13
-6.1669082e-13
-2.0309351e-14
-4.8288367e-13
-5.953094e-13
-7.827876e-14
-5.6117916e-13
4.5830999e-12
-5.5179991e-12
4.9849008e-12
-6.327993e-12
5.7636215e-12
-6.9182615e-12
6.4763964e-12
-7.6994214e-12
7.8889299e-12
-7.1459044e-12
6.3816188e-12
-1.1115782e-11
-1.7684273e-12
-1.379381e-13
-2.6959342e-12
-8.0166957e-13
-3.3172388e-12
-8.511464e-13
-3.6723687e-12
-1.0958877e-12
-3.9958474e-12
-1.5112861e-12
-4.8129559e-12
-1.7342182e-12
-5.2532462e-12
-3.7206467e-12
1.6512934e-11
-2.4451081e-11
1.7823588e-11
-2.7536353e-11
1.9066488e-11
-3.0702139e-11
1.9804892e-11
-3.3686059e-11
2.302802e-11
-3.5551181e-11
2.8739385e-11
-3.5164427e-11
-1.464797e-11
-6.4486229e-12
-1.2484122e-11