/*--------------------------------*- C++ -*----------------------------------*\
| =========                 |                                                 |
| \\      /  F ield         | OpenFOAM: The Open Source CFD Toolbox           |
|  \\    /   O peration     | Version:  2406                                  |
|   \\  /    A nd           | Website:  www.openfoam.com                      |
|    \\/     M anipulation  |                                                 |
\*---------------------------------------------------------------------------*/
FoamFile
{
    version     2.0;
    format      ascii;
    arch        "LSB;label=32;scalar=64";
    class       volScalarField;
    location    "2406";
    object      initialResidual:Ux;
}
// * * * * * * * * * * * * * * * * * * * * * * * * * * * * * * * * * * * * * //

dimensions      [0 0 0 0 0 0 0];

internalField   nonuniform List<scalar> 
69120
(
-7.2634519e-14
-9.4533498e-14
-6.9250974e-15
4.3273816e-14
7.0808604e-13
-3.5496389e-13
3.0687035e-12
-1.2104499e-12
8.2186495e-12
3.2244086e-13
1.5534625e-11
1.6192418e-11
2.6974137e-11
7.0429092e-11
7.6863729e-11
2.0601632e-10
4.1420308e-10
4.2984752e-10
2.2886215e-09
2.5430536e-09
-1.3099169e-13
-1.705122e-13
-1.1969755e-14
7.9661267e-14
1.3032788e-12
-6.5595814e-13
5.6517493e-12
-2.2458329e-12
1.5139144e-11
5.7130949e-13
2.8595363e-11
2.982925e-11
4.9636344e-11
1.2975681e-10
1.4168344e-10
3.7921813e-10
7.6440243e-10
7.9006204e-10
4.2206269e-09
4.6857124e-09
-1.9811179e-13
-2.5814255e-13
-1.7532525e-14
1.2258835e-13
2.0117419e-12
-1.0182957e-12
8.731355e-12
-3.4986762e-12
2.3392783e-11
8.4939434e-13
4.4151483e-11
4.6123437e-11
7.6634452e-11
2.0064883e-10
2.1932419e-10
5.8575272e-10
1.1852258e-09
1.2181331e-09
6.537928e-09
7.2495678e-09
-2.5116812e-13
-3.2798129e-13
-2.1926037e-14
1.5761719e-13
2.6053866e-12
-1.32858e-12
1.1319673e-11
-4.5790897e-12
3.0336719e-11
1.0618416e-12
5.7221715e-11
5.9930618e-11
9.9383574e-11
2.6079006e-10
2.8564567e-10
7.6046297e-10
1.5475216e-09
1.5780362e-09
8.5259689e-09
9.4386059e-09
-2.9530762e-13
-3.8694411e-13
-2.6036898e-14
1.871565e-13
3.1310609e-12
-1.6118118e-12
1.3624407e-11
-5.5710965e-12
3.6545307e-11
1.2367486e-12
6.8942159e-11
7.2491554e-11
1.1999003e-10
3.1586612e-10
3.4713574e-10
9.207065e-10
1.8879834e-09
1.9068557e-09
1.0390294e-08
1.1480588e-08
-3.311437e-13
-4.3572421e-13
-3.0203162e-14
2.1108441e-13
3.5935634e-12
-1.8723647e-12
1.567643e-11
-6.4915911e-12
4.2142415e-11
1.3822121e-12
7.9654471e-11
8.4242783e-11
1.3929093e-10
3.6838674e-10
4.0693762e-10
1.0753524e-09
2.2263696e-09
2.2250699e-09
1.2246993e-08
1.3505367e-08
-3.5915601e-13
-4.7505186e-13
-3.4732959e-14
2.2919579e-13
3.998123e-12
-2.1154493e-12
1.7516334e-11
-7.3639497e-12
4.7312368e-11
1.5082033e-12
8.9895702e-11
9.5860046e-11
1.5860151e-10
4.2224502e-10
4.6977752e-10
1.2379775e-09
2.5913843e-09
2.5638064e-09
1.4264004e-08
1.5702146e-08
-3.7971557e-13
-5.0524949e-13
-3.9626722e-14
2.4168298e-13
4.3510842e-12
-2.3475978e-12
1.920331e-11
-8.2219093e-12
5.2336009e-11
1.6282635e-12
1.0047888e-10
1.0833019e-10
1.7981232e-10
4.8286472e-10
5.4189503e-10
1.427029e-09
3.0190015e-09
2.9655973e-09
1.6653634e-08
1.8314146e-08
-3.9316629e-13
-5.2646039e-13
-4.5026483e-14
2.4864876e-13
4.6617541e-12
-2.5778147e-12
2.0826212e-11
-9.1151409e-12
5.7628579e-11
1.7594606e-12
1.1254278e-10
1.2296649e-10
2.0540866e-10
5.5730051e-10
6.3095706e-10
1.6675435e-09
3.5534507e-09
3.4911248e-09
1.9693998e-08
2.1668483e-08
-3.9986254e-13
-5.3890226e-13
-5.0931915e-14
2.4849654e-13
4.9463198e-12
-2.8185241e-12
2.251801e-11
-1.0114312e-11
6.3772168e-11
1.9185591e-12
1.2759727e-10
1.4145053e-10
2.3863936e-10
6.5501729e-10
7.4672868e-10
1.994022e-09
4.2516131e-09
4.2227187e-09
2.3749396e-08
2.6192162e-08
-4.0013739e-13
-5.4281341e-13
-5.7434092e-14
2.4694049e-13
5.2218412e-12
-3.0875771e-12
2.4471782e-11
-1.1317534e-11
7.1546151e-11
2.1099199e-12
1.4761668e-10
1.6591108e-10
2.8346341e-10
7.8702106e-10
8.9927291e-10
2.4395893e-09
5.1629606e-09
5.226756e-09
2.9101834e-08
3.2201767e-08
-3.9436325e-13
-5.3788246e-13
-6.4583755e-14
2.4416927e-13
5.5237238e-12
-3.4104638e-12
2.6958491e-11
-1.2860407e-11
8.1966434e-11
2.3104435e-12
1.7485429e-10
1.9844948e-10
3.429626e-10
9.5985689e-10
1.0922004e-09
3.0111603e-09
6.2878274e-09
6.4979688e-09
3.5697058e-08
3.9616162e-08
-3.8298303e-13
-5.2663581e-13
-7.1950041e-14
2.4228362e-13
5.9036231e-12
-3.8243471e-12
3.0343537e-11
-1.4933332e-11
9.6198872e-11
2.472085e-12
2.1083285e-10
2.3984349e-10
4.1693704e-10
1.1696204e-09
1.3181971e-09
3.6794022e-09
7.5664303e-09
7.9525099e-09
4.3126435e-08
4.795157e-08
-3.6650858e-13
-5.0910524e-13
-8.1478227e-14
2.4381669e-13
6.4375796e-12
-4.385178e-12
3.5075502e-11
-1.7761091e-11
1.151089e-10
2.5519795e-12
2.5513733e-10
2.8867633e-10
5.0133875e-10
1.402723e-09
1.5618445e-09
4.3917472e-09
8.9063609e-09
9.4662414e-09
5.0816918e-08
5.6544779e-08
-3.4555312e-13
-4.8748809e-13
-9.34038e-14
2.5091994e-13
7.2296119e-12
-5.1740539e-12
4.1564356e-11
-2.1499136e-11
1.3864205e-10
2.5440483e-12
3.0524611e-10
3.4178121e-10
5.8987673e-10
1.6414827e-09
1.8058137e-09
5.0924461e-09
1.0217158e-08
1.0918591e-08
5.8233259e-08
6.47826e-08
-3.2079732e-13
-4.6468602e-13
-1.0849394e-13
2.6303352e-13
8.3977773e-12
-6.2769373e-12
4.9944094e-11
-2.6107227e-11
1.656189e-10
2.4871355e-12
3.5745015e-10
3.9543099e-10
6.7621131e-10
1.8698204e-09
2.0359334e-09
5.7373791e-09
1.143251e-08
1.2220415e-08
6.4996298e-08
7.2233691e-08
-2.9301268e-13
-4.4487179e-13
-1.2698783e-13
2.7243745e-13
1.0021959e-11
-7.7296433e-12
5.9901278e-11
-3.1322119e-11
1.9411343e-10
2.45301e-12
4.0807421e-10
4.4644033e-10
7.5552925e-10
2.0765732e-09
2.2434748e-09
6.2998732e-09
1.251654e-08
1.3321773e-08
7.0907663e-08
7.8674016e-08
-2.6300143e-13
-4.3275236e-13
-1.5300304e-13
2.6939041e-13
1.2075955e-11
-9.4726241e-12
7.0733835e-11
-3.6745398e-11
2.2209236e-10
2.525008e-12
4.5435491e-10
4.9273605e-10
8.2510365e-10
2.2561006e-09
2.424964e-09
6.7691835e-09
1.34589e-08
1.4205616e-08
7.5914023e-08
8.4044658e-08
-2.3157669e-13
-4.3205587e-13
-1.8837015e-13
2.4434448e-13
1.4407208e-11
-1.1360152e-11
8.1587348e-11
-4.1970913e-11
2.4793839e-10
2.7794433e-12
4.9474089e-10
5.3339458e-10
8.8404462e-10
2.4071239e-09
2.5806849e-09
7.145563e-09
1.4265662e-08
1.4876294e-08
8.0052199e-08
8.8389089e-08
-1.9956682e-13
-4.4308242e-13
-2.3354409e-13
1.9941167e-13
1.6786062e-11
-1.3211196e-11
9.1704602e-11
-4.668084e-11
2.7067548e-10
3.2787106e-12
5.287368e-10
5.6834942e-10
9.3269958e-10
2.5310315e-09
2.7130256e-09
7.4351982e-09
1.495094e-08
1.5349088e-08
8.3401697e-08
9.1799519e-08
-1.6775936e-13
-4.6233156e-13
-2.8523624e-13
1.4704037e-13
1.8982923e-11
-1.4861674e-11
1.0056832e-10
-5.0677809e-11
2.8991566e-10
4.0701886e-12
5.5653998e-10
5.9802452e-10
9.7205327e-10
2.6304248e-09
2.8251982e-09
7.6465003e-09
1.5531175e-08
1.5643072e-08
8.6053391e-08
9.4381776e-08
-1.3684171e-13
-4.8380354e-13
-3.3793975e-13
1.0479638e-13
2.0824811e-11
-1.6192388e-11
1.0791347e-10
-5.3866966e-11
3.0566868e-10
5.1904314e-12
5.7869121e-10
6.2303651e-10
1.0033063e-09
2.7081579e-09
2.9204751e-09
7.7879309e-09
1.6021965e-08
1.5777175e-08
8.8092726e-08
9.6236587e-08
-1.0744411e-13
-5.0092265e-13
-3.8570362e-13
9.0198682e-14
2.2213013e-11
-1.7131123e-11
1.1365985e-10
-5.6216712e-11
3.181386e-10
6.6711914e-12
5.9582186e-10
6.4400613e-10
1.0276226e-09
2.7668224e-09
3.0018081e-09
7.8669781e-09
1.6436665e-08
1.5768451e-08
8.9592677e-08
9.7451811e-08
-7.9973354e-14
-5.0792573e-13
-4.236559e-13
1.1813467e-13
2.3112234e-11
-1.764057e-11
1.1782769e-10
-5.7721689e-11
3.2757522e-10
8.540807e-12
6.0851113e-10
6.61459e-10
1.0460233e-09
2.8085354e-09
3.0716996e-09
7.8898119e-09
1.6786017e-08
1.5631636e-08
9.061216e-08
9.8100772e-08
-5.4701794e-14
-5.0093697e-13
-4.4918756e-13
2.0118629e-13
2.3528637e-11
-1.7704151e-11
1.2047474e-10
-5.8379065e-11
3.3418798e-10
1.0827145e-11
6.1721911e-10
6.7577993e-10
1.0593452e-09
2.8348809e-09
3.1321843e-09
7.8612974e-09
1.707825e-08
1.5379335e-08
9.1197009e-08
9.8243445e-08
-3.1645259e-14
-4.7832701e-13
-4.5578472e-13
3.4545977e-13
2.3488496e-11
-1.7316211e-11
1.2166261e-10
-5.8177227e-11
3.3811362e-10
1.3558266e-11
6.2227062e-10
6.8721173e-10
1.0682491e-09
2.8469422e-09
3.1848774e-09
7.7851772e-09
1.7319367e-08
1.5022445e-08
9.1381933e-08
9.7928687e-08
-1.0704545e-14
-4.4070476e-13
-4.4367808e-13
5.5136104e-13
2.303524e-11
-1.6477063e-11
1.2144855e-10
-5.7095217e-11
3.3941686e-10
1.6757817e-11
6.2386446e-10
6.9585709e-10
1.0732348e-09
2.8453589e-09
3.2310199e-09
7.6642729e-09
1.7513449e-08
1.457068e-08
9.1192607e-08
9.7196634e-08
8.409072e-15
-3.907534e-13
-4.1345399e-13
8.2240117e-13
2.2209165e-11
-1.5192077e-11
1.1988906e-10
-5.5110236e-11
3.3811359e-10
2.0445728e-11
6.2209748e-10
7.0169354e-10
1.074675e-09
2.8303926e-09
3.271529e-09
7.5007195e-09
1.766294e-08
1.4033025e-08
9.0647604e-08
9.6080832e-08
2.5974882e-14
-3.3242332e-13
-3.6600584e-13
1.2113678e-12
2.0996309e-11
-1.3470919e-11
1.1704733e-10
-5.2204768e-11
3.3420669e-10
2.4629715e-11
6.1700145e-10
7.0459721e-10
1.072837e-09
2.8019969e-09
3.3070353e-09
7.296172e-09
1.776885e-08
1.3418193e-08
8.9760056e-08
9.4610058e-08
4.2463212e-14
-2.7055962e-13
-3.0275782e-13
1.5417043e-12
1.9599822e-11
-1.1318162e-11
1.1299631e-10
-4.8375748e-11
3.2771955e-10
2.9305086e-11
6.0858529e-10
7.0436651e-10
1.0679138e-09
2.7599051e-09
3.3378991e-09
7.0520104e-09
1.7830927e-08
1.2734986e-08
8.8539082e-08
9.2809809e-08
5.7962966e-14
-2.0953291e-13
-2.2708051e-13
1.8670759e-12
1.8024304e-11
-8.7786098e-12
1.0782385e-10
-4.3638038e-11
3.1872657e-10
3.4445752e-11
5.9688282e-10
7.0075723e-10
1.0600549e-09
2.7037048e-09
3.3642337e-09
6.7695571e-09
1.7847787e-08
1.1992656e-08
8.6991029e-08
9.0703496e-08
7.2817403e-14
-1.5218816e-13
-1.4542707e-13
2.1808735e-12
1.6302702e-11
-5.8784436e-12
1.0162136e-10
-3.8024695e-11
3.0736538e-10
4.0006776e-11
5.8199728e-10
6.9352518e-10
1.0494077e-09
2.632965e-09
3.3859141e-09
6.4502889e-09
1.7817048e-08
1.1201182e-08
8.5120649e-08
8.8313481e-08
8.7146436e-14
-1.0027959e-13
-5.708975e-14
2.473504e-12
1.4255909e-11
-2.4105648e-12
9.4474956e-11
-3.1592368e-11
2.9383562e-10
4.5922571e-11
5.6413113e-10
6.8246997e-10
1.0361382e-09
2.5473604e-09
3.4025941e-09
6.0960981e-09
1.7735458e-08
1.0371542e-08
8.2932238e-08
8.5661966e-08
1.0115953e-13
-5.0597981e-14
3.6987774e-14
2.7258196e-12
1.2609483e-11
8.2577695e-13
8.6551488e-11
-2.4404034e-11
2.7838501e-10
5.2110483e-11
5.4359867e-10
6.6748435e-10
1.0204729e-09
2.4468325e-09
3.4137219e-09
5.7095412e-09
1.7599091e-08
9.5159098e-09
8.0430832e-08
8.2771816e-08
1.1467693e-13
8.8323446e-15
1.0937605e-13
2.9313288e-12
1.1124275e-11
4.0497675e-12
7.7907458e-11
-1.649772e-11
2.6128963e-10
5.8478999e-11
5.2081167e-10
6.4857714e-10
1.0027019e-09
2.331729e-09
3.418575e-09
5.2941088e-09
1.7403578e-08
8.6477869e-09
7.7623439e-08
7.9667346e-08
1.2916057e-13
6.8273512e-14
1.7477859e-13
3.0728267e-12
9.7826192e-12
7.7440485e-12
6.8249864e-11
-8.0750129e-12
2.4284244e-10
6.4935779e-11
4.9624799e-10
6.2589722e-10
9.8317277e-10
2.2029418e-09
3.4162809e-09
4.8544473e-09
1.7144425e-08
7.7820093e-09
7.4520329e-08
7.6375085e-08
1.4625887e-13
1.1602958e-13
3.1422174e-13
3.0186062e-12
8.5924393e-12
1.013032e-11
5.9393074e-11
7.8997919e-13
2.2331492e-10
7.1383732e-11
4.7040521e-10
5.9972949e-10
9.6225983e-10
2.0619552e-09
3.4058546e-09
4.3965105e-09
1.6817368e-08
6.9345985e-09
7.1136264e-08
7.2924529e-08
1.6672341e-13
1.6357835e-13
1.8987503e-13
3.0893309e-12
7.5388168e-12
1.1853366e-11
4.9766691e-11
1.1036755e-11
2.0291024e-10
7.7751e-11
4.437562e-10
5.7048138e-10
9.4030883e-10
1.9108679e-09
3.3861994e-09
3.9275687e-09
1.641877e-08
6.1224539e-09
6.7491596e-08
6.9348823e-08
2.0006219e-13
7.8114598e-14
4.1559638e-13
3.0231651e-12
6.3045819e-12
1.2936874e-11
4.2631385e-11
1.9127283e-11
1.819663e-10
8.4052432e-11
4.167372e-10
5.3866583e-10
9.175769e-10
1.7523063e-09
3.3561204e-09
3.4560812e-09
1.5945992e-08
5.3627771e-09
6.3613062e-08
6.5685165e-08
2.0933429e-13
1.9358994e-13
3.5042195e-13
2.7071071e-12
5.3263643e-12
1.3475034e-11
3.6559922e-11
2.6313909e-11
1.6086854e-10
9.0039476e-11
3.8961512e-10
5.0489302e-10
8.9416596e-10
1.5893221e-09
3.3142878e-09
2.9913932e-09
1.5397716e-08
4.6723696e-09
5.9534132e-08
6.1976063e-08
2.2949871e-13
2.1460524e-13
6.7007511e-13
1.9772448e-12
4.8667459e-12
1.3187021e-11
3.1364064e-11
3.4071607e-11
1.3822843e-10
9.5914415e-11
3.6250419e-10
4.6985543e-10
8.6996943e-10
1.4252483e-09
3.2592183e-09
2.5433269e-09
1.4774153e-08
4.0667298e-09
5.5294794e-08
5.8269229e-08
2.4109187e-13
3.3024104e-13
2.7269246e-13
2.0005733e-12
4.1104203e-12
1.2374844e-11
2.68119e-11
3.7412753e-11
1.1708504e-10
1.0339765e-10
3.3566644e-10
4.3425813e-10
8.4464713e-10
1.26357e-09
3.1892635e-09
2.1216687e-09
1.407719e-08
3.5590286e-09
5.0941035e-08
5.4612915e-08
2.6459737e-13
3.6095779e-13
3.9294609e-13
2.317764e-12
2.9279253e-12
1.224678e-11
2.1971674e-11
3.8526002e-11
1.0172121e-10
1.060475e-10
3.0882585e-10
3.9905473e-10
8.1754437e-10
1.1078114e-09
3.102555e-09
1.7357038e-09
1.3310407e-08
3.1593248e-09
4.652358e-08
5.107785e-08
2.8819655e-13
3.8569842e-13
6.0703699e-13
1.6803087e-12
2.7523522e-12
1.0948204e-11
1.7929346e-11
3.7619172e-11
8.8907215e-11
1.0922183e-10
2.7944569e-10
3.6509035e-10
7.8759554e-10
9.6139652e-10
2.9969081e-09
1.3938171e-09
1.2479054e-08
2.8740788e-09
4.209509e-08
4.7738472e-08
3.0616482e-13
4.428645e-13
6.5997208e-13
1.9469114e-12
3.0365155e-12
8.5293335e-12
1.4168541e-11
3.5181802e-11
7.748574e-11
1.0576054e-10
2.5452906e-10
3.3275876e-10
7.539469e-10
8.2746621e-10
2.8706577e-09
1.1024703e-09
1.1590307e-08
2.7028821e-09
3.7714386e-08
4.4545079e-08
3.2290143e-13
4.9853524e-13
7.0311465e-13
2.3936027e-12
1.5130362e-12
9.1805279e-12
1.1319369e-11
3.2177483e-11
6.4566963e-11
9.8599628e-11
2.2867358e-10
3.0504943e-10
7.1436185e-10
7.0919426e-10
2.721194e-09
8.669917e-10
1.0652776e-08
2.6431644e-09
3.3440855e-08
4.1550145e-08
3.3920089e-13
5.359567e-13
8.1703741e-13
2.3798463e-12
2.7232903e-12
3.8911339e-12
1.044341e-11
2.6757097e-11
5.5955282e-11
8.7490709e-11
2.065807e-10
2.8034747e-10
6.6443945e-10
6.0892003e-10
2.5427019e-09
6.9292949e-10
9.6757615e-09
2.6973439e-09
2.9294347e-08
3.9368087e-08
3.5024761e-13
5.7653188e-13
8.5301211e-13
2.6949137e-12
1.8475256e-12
5.9829225e-12
9.4211375e-12
2.0620464e-11
4.6185528e-11
7.7445855e-11
1.8182544e-10
2.4767233e-10
6.1418087e-10
5.2398175e-10
2.3473874e-09
5.6983418e-10
8.6767129e-09
2.8033373e-09
2.5412944e-08
3.5578368e-08
3.5792203e-13
5.9413585e-13
9.3216407e-13
2.6303335e-12
2.6755612e-12
7.0414091e-12
2.8163097e-12
1.5692413e-11
3.9133127e-11
5.5988963e-11
1.7234528e-10
2.0622976e-10
5.4560073e-10
4.7227455e-10
2.1197857e-09
5.0555948e-10
7.6654999e-09
2.9859144e-09
2.1900798e-08
3.2006761e-08
3.5850489e-13
5.9784122e-13
9.559506e-13
2.6058947e-12
2.9561145e-12
6.2302108e-12
7.5273746e-12
4.1098583e-12
2.9725923e-11
4.5875706e-11
1.4947721e-10
1.4532203e-10
5.2573024e-10
4.3374343e-10
1.769083e-09
5.6785954e-10
6.6237853e-09
3.5096954e-09
1.7849515e-08
2.8969172e-08
4.2618686e-13
4.6086052e-13
9.3475921e-13
2.5195956e-12
2.9014499e-12
6.4668895e-12
5.2072582e-12
1.0886354e-11
2.2311049e-11
3.2962383e-11
1.2148318e-10
1.0019929e-10
4.6940191e-10
3.0109709e-10
1.6968794e-09
4.2922665e-10
5.7239563e-09
3.0224427e-09
1.5464789e-08
2.5557027e-08
3.5804693e-13
5.3828469e-13
4.8474419e-13
2.3770153e-12
2.8686081e-12
5.7673866e-12
5.947548e-12
1.0815362e-11
1.4229853e-11
1.6980528e-11
8.1310667e-11
9.3545643e-11
3.9301012e-10
2.1816959e-10
1.4935105e-09
3.7508685e-10
4.872013e-09
2.8397215e-09
1.3237056e-08
2.1829186e-08
3.0644931e-13
4.2096882e-13
3.8506698e-13
1.9033525e-12
2.5711794e-12
4.539577e-12
7.4629469e-12
4.3112042e-12
2.0294558e-11
4.3478832e-12
3.6960462e-11
9.2048064e-11
2.9719036e-10
1.5254564e-10
1.2483659e-09
3.478493e-10
4.0489471e-09
2.6533179e-09
1.1167211e-08
1.8695902e-08
2.613465e-13
1.6864288e-13
3.7789216e-13
1.0271228e-12
1.7199436e-12
3.3663489e-12
3.6669418e-12
6.883924e-12
9.6831709e-12
9.4931146e-12
2.8328562e-11
2.2826172e-11
1.6572319e-10
1.5416607e-10
9.7070552e-10
3.2133851e-10
3.2675401e-09
2.4377099e-09
9.3379962e-09
1.5823779e-08
1.781908e-13
-4.0314974e-13
1.9859114e-14
-1.0236118e-12
4.9692195e-13
1.527653e-12
1.152245e-12
3.8288261e-12
5.1130211e-12
6.9158013e-12
1.3100798e-11
1.421667e-11
4.7500573e-11
1.5095464e-10
6.4350641e-10
2.9648983e-10
2.5321719e-09
2.1790558e-09
7.7163058e-09
1.3222274e-08
-5.3457239e-14
-1.7076618e-13
-1.1470963e-12
4.3431925e-13
-2.9078961e-12
3.5512843e-12
-3.4938857e-12
6.0065425e-12
1.4064166e-12
7.3476225e-12
9.7942487e-12
1.2020121e-11
1.9861904e-11
4.6553567e-11
3.1340289e-10
3.4548725e-10
1.8405943e-09
1.8599438e-09
6.2919143e-09
1.0848091e-08
6.4892536e-14
-5.5117022e-13
-5.1555982e-13
-8.6862462e-13
-2.0922708e-12
2.5226071e-12
-1.8595403e-12
4.4609594e-12
3.5670772e-12
5.8140159e-12
1.4036092e-11
1.104386e-11
3.6259967e-11
3.0861175e-11
1.0638912e-10
3.1036962e-10
1.1520391e-09
1.5222367e-09
5.0037305e-09
8.6941009e-09
1.6819879e-14
4.3784421e-14
-1.6260882e-12
4.3214043e-13
-2.6612046e-12
3.3360537e-12
-3.0084268e-12
6.2727046e-12
2.2039037e-12
8.6050334e-12
1.2214174e-11
1.7863516e-11
2.5596927e-11
3.1448275e-11
7.1442435e-11
1.5721521e-10
6.3572747e-10
1.2266258e-09
3.8049265e-09
6.7485184e-09
4.6351811e-14
-2.2884472e-13
-1.1328161e-12
9.5784491e-14
-3.1655512e-12
3.3312797e-12
-1.8458846e-12
5.4433402e-12
4.0411285e-12
7.8584361e-12
1.5109358e-11
1.8174878e-11
2.8745589e-11
3.5738801e-11
6.5847633e-11
9.7746533e-11
2.7288258e-10
9.2711633e-10
2.620818e-09
5.0028665e-09
1.2323476e-14
1.4557799e-13
-1.7778279e-12
1.034256e-12
-4.3727522e-12
4.6966875e-12
-2.9252434e-12
7.6504358e-12
2.2447599e-12
1.1290857e-11
1.375719e-11
2.2339297e-11
2.9675123e-11
4.0181414e-11
7.9575541e-11
5.129025e-11
2.0162957e-10
4.5130541e-10
1.667988e-09
3.5340044e-09
4.096723e-14
-2.8343994e-13
-6.2050365e-13
-8.0369045e-13
-1.2998769e-12
2.2024604e-12
-1.8046675e-13
4.7773452e-12
6.7308381e-12
7.6717521e-12
2.0038665e-11
1.9635127e-11
3.6422892e-11
4.0752096e-11
8.8341556e-11
5.1366855e-11
1.8695021e-10
2.9688585e-10
7.5047252e-10
2.5688314e-09
-1.54321e-14
4.614642e-13
-2.1427027e-12
1.4762913e-12
-4.2798265e-12
6.6016637e-12
-5.6363525e-12
1.2301105e-11
-1.082634e-12
1.8288038e-11
1.1335072e-11
3.1777941e-11
3.1950664e-11
4.8071991e-11
1.0260565e-10
3.8952314e-11
2.5808417e-10
1.5278373e-10
4.9581955e-10
1.2699826e-09
4.5630166e-14
-5.5472293e-13
3.7916892e-13
-2.2774838e-12
1.3792578e-12
-5.7551186e-13
3.6244896e-12
2.2945812e-12
1.1639523e-11
6.120382e-12
2.6996516e-11
2.0999785e-11
4.4821952e-11
5.1522786e-11
9.4714542e-11
8.8451052e-11
1.9090751e-10
3.2519792e-10
1.8496221e-10
1.0181843e-09
-5.6732397e-14
1.0484946e-12
-3.2507608e-12
3.6600167e-12
-6.4980799e-12
9.5604635e-12
-8.0133677e-12
1.6753487e-11
-3.265388e-12
2.4319741e-11
1.1444651e-11
3.9672404e-11
3.7113007e-11
5.8305416e-11
1.1906304e-10
5.9378918e-11
2.6202032e-10
2.9470135e-10
3.3012626e-10
7.5938308e-10
3.7303494e-14
-4.5830006e-13
3.1114e-13
-1.641326e-12
1.0875745e-12
3.6731729e-13
3.4429959e-12
4.8651916e-12
1.1076584e-11
1.1662615e-11
2.7086056e-11
3.0767527e-11
4.8484411e-11
6.4874633e-11
1.1156132e-10
1.1731993e-10
1.7132926e-10
5.2732793e-10
2.5107583e-11
1.3246365e-09
-7.4495965e-14
1.0541013e-12
-2.7808311e-12
3.3787972e-12
-5.1931792e-12
8.4555141e-12
-5.2362559e-12
1.5687729e-11
1.1492474e-12
2.4122759e-11
1.9097557e-11
4.2024273e-11
4.7749249e-11
7.367279e-11
1.1640555e-10
1.4759027e-10
1.3813656e-10
6.626219e-10
-1.1092915e-10
1.5835429e-09
-4.1078252e-15
2.0933255e-13
-1.0920709e-12
1.316669e-12
-2.2803981e-12
5.4291571e-12
-1.11261e-12
1.2448542e-11
5.9530159e-12
2.2512603e-11
2.3386182e-11
4.5115189e-11
5.1290971e-11
7.9949769e-11
1.3720197e-10
1.2112977e-10
2.5387348e-10
5.1314542e-10
2.032105e-10
1.3024558e-09
-7.4162898e-14
9.7666319e-13
-2.4009683e-12
3.4049985e-12
-4.3596238e-12
8.4159346e-12
-3.7028158e-12
1.6717239e-11
3.3322789e-12
2.7886915e-11
2.2907343e-11
5.0637494e-11
5.5370597e-11
8.9148688e-11
1.4131052e-10
1.5073776e-10
2.5333202e-10
5.5731697e-10
2.5580787e-10
1.3453764e-09
-3.907985e-14
5.3190785e-13
-1.4472312e-12
2.5051072e-12
-2.807421e-12
7.1551098e-12
-1.2542745e-12
1.5288326e-11
6.9749206e-12
2.7309377e-11
2.7772062e-11
5.2794658e-11
6.1576411e-11
9.8565545e-11
1.4427326e-10
1.9061375e-10
2.2504509e-10
6.6619654e-10
2.132825e-10
1.5066938e-09
-9.3924868e-14
1.4215851e-12
-3.5051961e-12
6.0775274e-12
-7.3429596e-12
1.3791412e-11
-8.4595664e-12
2.5335845e-11
-2.1783131e-12
4.0732084e-11
1.8629043e-11
6.8496986e-11
5.7922112e-11
1.1036416e-10
1.6653551e-10
1.6966406e-10
3.3222319e-10
5.4828103e-10
5.0022336e-10
1.2584094e-09
-4.1522341e-14
5.2879923e-13
-1.3238299e-12
2.8877456e-12
-2.110756e-12
7.7327589e-12
3.6526338e-14
1.7160606e-11
9.3210439e-12
3.2055247e-11
3.262185e-11
6.2624517e-11
7.152412e-11
1.186507e-10
1.6647089e-10
2.2004337e-10
3.0251313e-10
6.5106037e-10
4.8147103e-10
1.4088215e-09
-1.1790569e-13
1.7373325e-12
-4.1292525e-12
7.880141e-12
-8.7351792e-12
1.7460589e-11
-1.0913104e-11
3.1936509e-11
-4.8283599e-12
5.1178506e-11
1.8563984e-11
8.3057394e-11
6.5721928e-11
1.34114e-10
1.8098245e-10
2.3076074e-10
3.4085484e-10
6.6624511e-10
5.702685e-10
1.4361905e-09
-4.5297099e-14
8.208989e-13
-2.2924995e-12
5.1056936e-12
-4.1004977e-12
1.2173484e-11
-3.1995517e-12
2.4679703e-11
5.9010574e-12
4.3761883e-11
3.114442e-11
7.9983353e-11
7.7070794e-11
1.4366042e-10
1.9031354e-10
2.5531088e-10
3.6827197e-10
6.8369177e-10
6.7021821e-10
1.441907e-09
-1.0791368e-13
1.6181501e-12
-3.9207526e-12
8.3567597e-12
-8.2320817e-12
1.9151347e-11
-1.1113666e-11
3.6931569e-11
-5.9108274e-12
6.1301075e-11
1.8942736e-11
9.905532e-11
7.3194562e-11
1.6001034e-10
2.0121449e-10
2.777879e-10
3.9202808e-10
7.1603723e-10
7.4400264e-10
1.4785078e-09
-5.9507954e-14
1.1729506e-12
-3.30036e-12
7.0382589e-12
-5.1567639e-12
1.5114132e-11
-3.9438453e-12
2.9396374e-11
6.0544902e-12
5.1951776e-11
3.4261594e-11
9.2801877e-11
8.8334673e-11
1.6734092e-10
2.0900282e-10
3.1359482e-10
3.9768244e-10
7.6322204e-10
8.0337059e-10
1.5183917e-09
-7.4606987e-14
1.3310464e-12
-3.6528558e-12
8.9341867e-12
-8.2861495e-12
2.2124635e-11
-1.3196222e-11
4.4755977e-11
-1.0524803e-11
7.5976891e-11
1.4100277e-11
1.2082924e-10
7.5569662e-11
1.8908541e-10
2.252758e-10
3.0687985e-10
4.8298887e-10
6.9815043e-10
9.795057e-10
1.4332961e-09
-6.2172489e-14
1.4113155e-12
-4.0615289e-12
8.3971718e-12
-5.2352567e-12
1.6578516e-11
-2.5550673e-12
3.1620706e-11
8.6478602e-12
5.7917116e-11
3.8610892e-11
1.0424217e-10
9.995571e-11
1.8940405e-10
2.2678093e-10
3.773194e-10
3.8163128e-10
9.6493369e-10
6.2891226e-10
2.0402118e-09
-2.1760371e-14
6.7468253e-13
-2.4900082e-12
7.5660589e-12
-5.1979532e-12
2.0122792e-11
-8.4495744e-12
4.3564152e-11
-4.978018e-12
7.872758e-11
2.051892e-11
1.2942936e-10
8.7825747e-11
2.0946389e-10
2.3824054e-10
3.7644354e-10
4.4197845e-10
9.2850361e-10
7.2107986e-10
2.0186406e-09
-7.2386541e-14
1.6568968e-12
-4.7650772e-12
1.015199e-11
-6.790124e-12
2.0789481e-11
-5.6556981e-12
3.9344639e-11
3.7219117e-12
7.1365025e-11
3.2125302e-11
1.2431656e-10
9.9169228e-11
2.1337221e-10
2.4672919e-10
3.9125725e-10
4.6640991e-10
9.0607288e-10
8.1275753e-10
1.9026044e-09
5.9063865e-14
-1.8640645e-13
-1.060152e-12
4.8848703e-12
1.9673152e-13
1.3256729e-11
3.2774894e-12
3.1365799e-11
1.2865264e-11
6.4890648e-11
4.0696335e-11
1.1963774e-10
1.0999601e-10
2.1183932e-10
2.5195657e-10
4.2055837e-10
4.2193016e-10
9.9644715e-10
6.9876438e-10
1.9827626e-09
-7.7271523e-14
1.2905232e-12
-3.4661163e-12
8.7747587e-12
-4.4042547e-12
1.9433122e-11
-2.7735592e-12
3.8492098e-11
6.7972294e-12
7.2089001e-11
3.4327208e-11
1.2822254e-10
1.0367995e-10
2.1932056e-10
2.5603275e-10
3.9965009e-10
4.9112314e-10
8.315737e-10
9.3773345e-10
1.505547e-09
8.8817842e-14
-3.4772185e-13
-1.0376144e-12
4.5228266e-12
1.314282e-12
1.1631363e-11
6.8294259e-12
2.6644464e-11
1.9650059e-11
5.7299054e-11
4.7547966e-11
1.1339574e-10
1.1392975e-10
2.0730506e-10
2.5650948e-10
3.9401171e-10
4.7583737e-10
7.8775364e-10
9.1584385e-10
1.2967267e-09
-1.5987212e-14
6.0840222e-14
-3.0508929e-13
3.5111913e-12
3.2467362e-12
8.5151886e-12
1.1415535e-11
1.9326318e-11
2.7950309e-11
4.4088733e-11
5.8355099e-11
9.5352615e-11
1.2271117e-10
1.8686275e-10
2.5183655e-10
3.8194292e-10
4.1588444e-10
7.9802298e-10
6.9511463e-10
1.2768917e-09
2.8421709e-14
-7.0166095e-14
-7.2875039e-13
3.9381831e-12
1.4619417e-12
1.0462964e-11
6.5862871e-12
2.3266722e-11
1.8919755e-11
4.8204329e-11
4.4785731e-11
9.6849195e-11
1.0243406e-10
1.7961566e-10
2.2892466e-10
3.2910807e-10
4.2671644e-10
5.82977e-10
7.3699069e-10
7.5875728e-10
6.9277917e-14
-8.4421359e-13
1.2823076e-12
-4.485301e-14
6.6915362e-12
9.0416563e-13
1.7370105e-11
4.4726445e-12
3.596301e-11
1.7800206e-11
6.4472205e-11
5.5270233e-11
1.1406076e-10
1.3075341e-10
2.0802693e-10
2.8240676e-10
3.1779668e-10
5.1110094e-10
4.4680792e-10
5.0358206e-10
-2.5757174e-14
-4.0745185e-13
1.7239543e-12
-1.010747e-12
6.357137e-12
-4.833911e-13
1.5052182e-11
1.3402612e-12
3.0431879e-11
8.7745367e-12
5.4943161e-11
3.3535619e-11
9.3968167e-11
9.037926e-11
1.620466e-10
1.9824253e-10
2.3434099e-10
2.7383917e-10
2.7021385e-10
-9.2037711e-11
-3.1086245e-14
1.707523e-13
2.633449e-13
-1.7830182e-13
2.1431745e-12
1.448619e-12
6.0684791e-12
3.4481307e-12
1.3035795e-11
8.736567e-12
2.4319435e-11
2.3540281e-11
4.3975712e-11
5.3846261e-11
8.4113827e-11
8.8775209e-11
1.1987988e-10
-3.4553249e-11
1.9612312e-11
-8.0033313e-10
-1.7763568e-15
-5.9463545e-13
3.185896e-12
-7.9967144e-12
1.2240875e-11
-1.7692514e-11
2.4031888e-11
-3.3351988e-11
4.0806469e-11
-5.3834714e-11
5.6930904e-11
-7.0476069e-11
5.9939609e-11
-6.775025e-11
2.5560887e-11
-3.9168224e-11
-1.4993606e-10
-1.6839818e-10
-7.2228712e-10
-1.4322707e-09
2.7533531e-14
3.1974423e-14
-1.0116352e-12
-4.1744386e-14
-3.7623238e-12
-1.7559287e-12
-9.1553432e-12
-6.2789773e-12
-1.8950619e-11
-1.8216983e-11
-3.6460168e-11
-4.3885784e-11
-6.8816508e-11
-9.3244967e-11
-1.3217782e-10
-2.1581581e-10
-3.2147929e-10
-7.2595485e-10
-1.1902133e-09
-2.2380426e-09
5.3290705e-14
-7.4029671e-13
3.0495606e-12
-1.2199575e-11
9.6269659e-12
-2.9536817e-11
1.4974688e-11
-6.019496e-11
1.7640556e-11
-1.0994272e-10
3.9679371e-12
-1.8204993e-10
-5.7605476e-11
-2.7857583e-10
-2.295617e-10
-4.2934989e-10
-7.0244566e-10
-1.1322747e-09
-1.8187607e-09
-3.2321386e-09
5.8619776e-14
-3.8191672e-14
-1.5036861e-12
-3.3422154e-12
-8.3368867e-12
-1.3723245e-11
-2.3789859e-11
-3.4122927e-11
-5.1648019e-11
-8.4790397e-11
-1.0452261e-10
-1.7770896e-10
-2.1539126e-10
-3.5284442e-10
-4.4581139e-10
-6.7795414e-10
-1.0501524e-09
-1.6349366e-09
-2.5978211e-09
-4.3826529e-09
1.3322676e-13
-7.4606987e-14
-2.279954e-12
-6.3806738e-12
-1.2505552e-11
-2.1402879e-11
-3.3929304e-11
-5.2658766e-11
-7.5460527e-11
-1.1770274e-10
-1.4096946e-10
-2.9160674e-10
-2.8131408e-10
-5.4779825e-10
-6.2949379e-10
-9.8778274e-10
-1.4647945e-09
-2.2189321e-09
-3.4839451e-09
-5.6749943e-09
1.9895197e-13
-1.5853985e-13
-3.2884806e-12
-8.9346308e-12
-1.7347901e-11
-2.9453329e-11
-4.7429616e-11
-7.1309625e-11
-1.1079937e-10
-1.4602231e-10
-2.74329e-10
-2.3333735e-10
-5.6544236e-10
-5.7158411e-10
-9.9560094e-10
-1.2615975e-09
-1.9280786e-09
-2.8933038e-09
-4.462676e-09
-7.0953989e-09
2.5757174e-13
-1.9317881e-13
-4.2130743e-12
-1.155076e-11
-2.2464697e-11
-3.8204107e-11
-6.1235017e-11
-9.2741814e-11
-1.4085089e-10
-1.9424107e-10
-3.1815794e-10
-3.4612802e-10
-6.8566308e-10
-7.5877749e-10
-1.294794e-09
-1.5657897e-09
-2.4066469e-09
-3.6510244e-09
-5.515524e-09
-8.6060101e-09
3.1974423e-13
-2.3625546e-13
-5.1718629e-12
-1.419842e-11
-2.7599256e-11
-4.6926019e-11
-7.5055517e-11
-1.1390533e-10
-1.714815e-10
-2.3932945e-10
-3.7296388e-10
-4.0043968e-10
-8.8135188e-10
-8.4735685e-10
-1.7051045e-09
-1.8656934e-09
-2.8877176e-09
-4.4051873e-09
-6.5787447e-09
-1.0138819e-08
3.6948222e-13
-2.7267077e-13
-6.0378369e-12
-1.6582291e-11
-3.220979e-11
-5.4869886e-11
-8.7465146e-11
-1.3381651e-10
-1.9766055e-10
-2.8900526e-10
-4.023395e-10
-5.8122307e-10
-9.0821484e-10
-9.218315e-10
-1.9995534e-09
-2.2214186e-09
-3.334967e-09
-5.0814881e-09
-7.5627451e-09
-1.1584801e-08
6.1987183e-09
1.3398006e-08
1.5995424e-08
2.075628e-08
2.605135e-08
3.1527898e-08
3.699233e-08
4.2329731e-08
4.7417259e-08
5.2190604e-08
5.6559693e-08
6.053236e-08
6.406767e-08
6.7176157e-08
6.9843474e-08
7.2096e-08
7.395801e-08
7.5474894e-08
7.6658911e-08
7.7548317e-08
7.8160532e-08
7.8533444e-08
7.8663803e-08
7.8615835e-08
7.8371968e-08
7.7976394e-08
7.7436934e-08
7.6769187e-08
7.5990914e-08
7.5115057e-08
7.4150759e-08
7.311494e-08
7.2011777e-08
7.0860082e-08
6.9657855e-08
6.8421489e-08
6.7153158e-08
6.5859936e-08
6.4547338e-08
6.3220768e-08
6.1885704e-08
6.0544558e-08
5.920177e-08
5.7860538e-08
5.6522327e-08
5.5193765e-08
5.3873138e-08
5.2564458e-08
4.8837526e-08
4.8550998e-08
4.8259341e-08
4.7962132e-08
4.765972e-08
4.7352732e-08
4.7041318e-08
4.672605e-08
4.6406939e-08
4.6084922e-08
4.5759016e-08
4.543113e-08
4.51e-08
4.4767604e-08
4.4432379e-08
4.4096224e-08
4.3757779e-08
4.3418648e-08
4.3077825e-08
4.2736799e-08
4.2394375e-08
4.2051944e-08
4.1709403e-08
4.136684e-08
4.1024394e-08
4.0682125e-08
4.0340279e-08
3.9998884e-08
3.9658135e-08
3.9318087e-08
3.8978943e-08
3.8640697e-08
3.8303545e-08
3.7967469e-08
3.7632772e-08
3.7299055e-08
3.6967027e-08
3.6636066e-08
3.6306902e-08
3.5978877e-08
3.5652754e-08
3.5327806e-08
3.5004855e-08
3.4683087e-08
3.4363311e-08
3.4044746e-08
3.3728285e-08
3.3412949e-08
3.3099507e-08
3.2787674e-08
3.2477468e-08
3.2168927e-08
3.186203e-08
3.1556782e-08
3.1253118e-08
3.0951043e-08
3.0650455e-08
3.0351408e-08
3.0053736e-08
2.9757464e-08
2.9462542e-08
2.916883e-08
2.8876606e-08
2.8584736e-08
2.8294945e-08
2.8005057e-08
2.7717243e-08
2.7429013e-08
2.7142797e-08
2.6855861e-08
2.6570898e-08
2.6284897e-08
2.6000536e-08
2.5714944e-08
2.543069e-08
2.5146033e-08
2.4861056e-08
2.4575961e-08
2.4290169e-08
2.4004055e-08
2.3716901e-08
2.3429117e-08
2.3139951e-08
2.2849802e-08
2.255789e-08
2.2264658e-08
2.1969223e-08
2.1671992e-08
2.1373085e-08
2.106939e-08
2.0765863e-08
2.0456024e-08