/*--------------------------------*- C++ -*----------------------------------*\
| =========                 |                                                 |
| \\      /  F ield         | OpenFOAM: The Open Source CFD Toolbox           |
|  \\    /   O peration     | Version:  2406                                  |
|   \\  /    A nd           | Website:  www.openfoam.com                      |
|    \\/     M anipulation  |                                                 |
\*---------------------------------------------------------------------------*/
FoamFile
{
    version     2.0;
    format      ascii;
    arch        "LSB;label=32;scalar=64";
    class       volScalarField;
    location    "2406";
    object      initialResidual:Uy;
}
// * * * * * * * * * * * * * * * * * * * * * * * * * * * * * * * * * * * * * //

dimensions      [0 0 0 0 0 0 0];

internalField   nonuniform List<scalar> 
69120
(
-2.146924e-15
-4.5935607e-15
3.1187617e-16
-1.9041316e-15
-7.9792737e-15
-1.9115993e-15
-4.8551913e-15
-6.5997621e-15
-3.1547799e-15
-3.0556026e-15
-4.3895819e-15
-3.0956372e-15
-7.0641815e-15
-6.8418517e-15
-1.002529e-14
-2.7361356e-14
-1.8407089e-14
-8.643876e-15
1.7176401e-13
-1.6337026e-13
-2.9437968e-15
-9.9646712e-15
-6.6469124e-18
-4.069337e-15
-1.512767e-14
-4.9403331e-15
-9.5640165e-15
-1.3945985e-14
-6.9468487e-15
-6.6858895e-15
-1.1492624e-14
-7.2055927e-15
-2.0126843e-14
-1.865981e-14
-3.1508537e-14
-8.1405514e-14
-5.1326707e-14
-1.3287027e-13
1.9083042e-13
-6.3752094e-13
-5.7099233e-15
-1.4563572e-14
-6.7978817e-16
-6.6973782e-15
-2.3443007e-14
-8.7995358e-15
-1.5178651e-14
-2.2879446e-14
-1.1586895e-14
-1.1082213e-14
-2.0111173e-14
-1.2171595e-14
-3.6035411e-14
-3.3082126e-14
-5.7871252e-14
-1.4693267e-13
-9.1258731e-14
-2.8606999e-13
2.000451e-13
-1.2070746e-12
-7.5685117e-15
-1.8531919e-14
-1.8733184e-15
-9.2676243e-15
-3.0027143e-14
-1.324715e-14
-2.018272e-14
-3.1516437e-14
-1.6239614e-14
-1.5515071e-14
-3.0016404e-14
-1.7464028e-14
-5.5152274e-14
-5.0137144e-14
-9.0688605e-14
-2.2655352e-13
-1.3879825e-13
-5.148872e-13
8.3892975e-14
-1.9570224e-12
-9.1161664e-15
-2.155078e-14
-3.3975207e-15
-1.1741383e-14
-3.5163197e-14
-1.7912612e-14
-2.4496613e-14
-3.9812877e-14
-2.093165e-14
-1.9943029e-14
-4.0955338e-14
-2.2932765e-14
-7.7064746e-14
-6.9748365e-14
-1.291327e-13
-3.2027012e-13
-1.9320964e-13
-8.1528325e-13
-1.4179943e-13
-2.8863933e-12
-1.0438707e-14
-2.3652499e-14
-5.1571805e-15
-1.4115056e-14
-3.9047987e-14
-2.2854567e-14
-2.8261029e-14
-4.787499e-14
-2.5750828e-14
-2.4477976e-14
-5.3336707e-14
-2.8910486e-14
-1.0282503e-13
-9.2996336e-14
-1.7551628e-13
-4.3508289e-13
-2.5881725e-13
-1.2114176e-12
-4.9191427e-13
-4.0782253e-12
-1.1716914e-14
-2.5290335e-14
-6.9700078e-15
-1.646046e-14
-4.199692e-14
-2.8121329e-14
-3.1620718e-14
-5.599505e-14
-3.101472e-14
-2.9298591e-14
-6.8003478e-14
-3.5852336e-14
-1.3477462e-13
-1.2258561e-13
-2.3523624e-13
-5.8779915e-13
-3.4483837e-13
-1.7623744e-12
-1.00563e-12
-5.7337767e-12
-1.2691703e-14
-2.6608306e-14
-8.8926745e-15
-1.8814573e-14
-4.4234134e-14
-3.3682726e-14
-3.4788091e-14
-6.4529932e-14
-3.7036765e-14
-3.4766134e-14
-8.6481923e-14
-4.4441359e-14
-1.772531e-13
-1.630324e-13
-3.179865e-13
-8.0659771e-13
-4.6724982e-13
-2.5797443e-12
-1.7893334e-12
-8.2046892e-12
-1.3385529e-14
-2.7516719e-14
-1.0768507e-14
-2.121309e-14
-4.5995314e-14
-3.9646229e-14
-3.8016994e-14
-7.4257856e-14
-4.4541921e-14
-4.1457829e-14
-1.115746e-13
-5.5962877e-14
-2.380523e-13
-2.2197872e-13
-4.4040617e-13
-1.1382969e-12
-6.5146909e-13
-3.8505623e-12
-3.0241966e-12
-1.2066616e-11
-1.4030771e-14
-2.8237169e-14
-1.2614083e-14
-2.374129e-14
-4.7616343e-14
-4.6301329e-14
-4.1688241e-14
-8.6159351e-14
-5.4562042e-14
-5.0214364e-14
-1.4751868e-13
-7.1979069e-14
-3.2850904e-13
-3.0974591e-13
-6.2571087e-13
-1.6452113e-12
-9.2967451e-13
-5.8275761e-12
-4.9787324e-12
-1.8066907e-11
-1.4529649e-14
-2.8796779e-14
-1.4411018e-14
-2.6477422e-14
-4.9441211e-14
-5.4229438e-14
-4.6383442e-14
-1.0207331e-13
-6.8819315e-14
-6.2460428e-14
-2.006737e-13
-9.4732741e-14
-4.6389617e-13
-4.3898086e-13
-9.0107005e-13
-2.397126e-12
-1.3368773e-12
-8.7876489e-12
-7.9576076e-12
-2.6993005e-11
-1.4929757e-14
-2.9532612e-14
-1.6217053e-14
-2.9669174e-14
-5.1928658e-14
-6.4317703e-14
-5.280168e-14
-1.2441439e-13
-8.9223389e-14
-7.9763477e-14
-2.7854581e-13
-1.2617134e-13
-6.5964263e-13
-6.2161128e-13
-1.291036e-12
-3.4515422e-12
-1.9011836e-12
-1.296024e-11
-1.2238137e-11
-3.9467089e-11
-1.5126015e-14
-3.0114359e-14
-1.8206704e-14
-3.3651544e-14
-5.5678935e-14
-7.8153125e-14
-6.1899147e-14
-1.5670197e-13
-1.1839172e-13
-1.0386179e-13
-3.8936396e-13
-1.6810424e-13
-9.2929359e-13
-8.6648727e-13
-1.8126382e-12
-4.8428131e-12
-2.6387935e-12
-1.8485705e-11
-1.8004296e-11
-5.5840257e-11
-1.5351497e-14
-3.0660374e-14
-2.0342004e-14
-3.9010777e-14
-6.1392665e-14
-9.7899934e-14
-7.4284102e-14
-2.02107e-13
-1.5865476e-13
-1.3558545e-13
-5.3928652e-13
-2.2108987e-13
-1.2798742e-12
-1.1763125e-12
-2.4716502e-12
-6.5753943e-12
-3.5506211e-12
-2.5396624e-11
-2.5326987e-11
-7.6159573e-11
-1.5490928e-14
-3.1692418e-14
-2.3013361e-14
-4.6683916e-14
-6.9902124e-14
-1.2654427e-13
-9.0602883e-14
-2.6345306e-13
-2.1225874e-13
-1.7521367e-13
-7.3191068e-13
-2.8483079e-13
-1.712584e-12
-1.5491664e-12
-3.2646551e-12
-8.6343854e-12
-4.6272501e-12
-3.365201e-11
-3.4185678e-11
-1.0027395e-10
-1.5591543e-14
-3.3195257e-14
-2.6598686e-14
-5.7978553e-14
-8.16915e-14
-1.6667629e-13
-1.106321e-13
-3.4128248e-13
-2.7983442e-13
-2.2187812e-13
-9.6697159e-13
-3.5779826e-13
-2.2234138e-12
-1.9799782e-12
-4.1826491e-12
-1.099662e-11
-5.8547568e-12
-4.3180276e-11
-4.4519646e-11
-1.2795807e-10
-1.566204e-14
-3.5389089e-14
-3.1624353e-14
-7.4515267e-14
-9.691113e-14
-2.2038803e-13
-1.3381231e-13
-4.3485326e-13
-3.6122375e-13
-2.7437605e-13
-1.2424739e-12
-4.384255e-13
-2.8069263e-12
-2.4641641e-12
-5.2166016e-12
-1.3645144e-11
-7.2208538e-12
-5.3926069e-11
-5.6277233e-11
-1.5903491e-10
-1.5732042e-14
-3.8504226e-14
-3.8521192e-14
-9.7492764e-14
-1.1460314e-13
-2.8778116e-13
-1.5850114e-13
-5.4125357e-13
-4.5502439e-13
-3.312274e-13
-1.5552951e-12
-5.2530781e-13
-3.4589357e-12
-2.9994689e-12
-6.3608229e-12
-1.6576094e-11
-8.7179986e-12
-6.58731e-11
-6.9443429e-11
-1.9343192e-10
-1.5790239e-14
-4.2630537e-14
-4.7502655e-14
-1.2744762e-13
-1.331465e-13
-3.6784376e-13
-1.8309333e-13
-6.5768631e-13
-5.5996233e-13
-3.9123158e-13
-1.903633e-12
-6.1777024e-13
-4.1779502e-12
-3.5867754e-12
-7.6138504e-12
-1.9799526e-11
-1.0343317e-11
-7.9047216e-11
-8.4049605e-11
-2.3118213e-10
-1.5846512e-14
-4.7677325e-14
-5.8213667e-14
-1.6369755e-13
-1.5016294e-13
-4.5811048e-13
-2.0589858e-13
-7.8141877e-13
-6.7495749e-13
-4.5379984e-13
-2.28719e-12
-7.1594006e-13
-4.9659913e-12
-4.2303474e-12
-8.9785294e-12
-2.3339057e-11
-1.20987e-11
-9.3513445e-11
-1.0016728e-10
-2.7241235e-10
-1.5880224e-14
-5.3408898e-14
-7.0061802e-14
-2.0494104e-13
-1.6362886e-13
-5.5616724e-13
-2.2592757e-13
-9.110208e-13
-7.9972173e-13
-5.1863226e-13
-2.7075239e-12
-8.2036613e-13
-5.8271265e-12
-4.93669e-12
-1.0459949e-11
-2.722632e-11
-1.3987341e-11
-1.0935943e-10
-1.1790064e-10
-3.1729546e-10
-1.5885641e-14
-5.9413778e-14
-8.2220946e-14
-2.49443e-13
-1.7212306e-13
-6.5984925e-13
-2.4267789e-13
-1.0459688e-12
-9.3471365e-13
-5.8601705e-13
-3.1677209e-12
-9.3234413e-13
-6.7679027e-12
-5.7145845e-12
-1.206528e-11
-3.1501793e-11
-1.6014132e-11
-1.2669385e-10
-1.3737438e-10
-3.6604322e-10
-1.5833816e-14
-6.5226118e-14
-9.400928e-14
-2.9556518e-13
-1.7503857e-13
-7.6755659e-13
-2.5597905e-13
-1.1861906e-12
-1.0806926e-12
-6.5604979e-13
-3.6713497e-12
-1.0530936e-12
-7.7948385e-12
-6.5736965e-12
-1.3801314e-11
-3.620843e-11
-1.8182046e-11
-1.4562833e-10
-1.5872861e-10
-4.1885758e-10
-1.5731266e-14
-7.0369183e-14
-1.0488236e-13
-3.4203718e-13
-1.7256959e-13
-8.7839171e-13
-2.6611344e-13
-1.3323781e-12
-1.2388253e-12
-7.2938698e-13
-4.2228257e-12
-1.1844538e-12
-8.9158443e-12
-7.5255352e-12
-1.5674914e-11
-4.1395157e-11
-2.0494108e-11
-1.6628208e-10
-1.8210935e-10
-4.7593997e-10
-1.5556923e-14
-7.4359359e-14
-1.144497e-13
-3.8773089e-13
-1.6506845e-13
-9.9142412e-13
-2.7304946e-13
-1.4845079e-12
-1.4097705e-12
-8.0600836e-13
-4.8256884e-12
-1.3278472e-12
-1.0137367e-11
-8.5817802e-12
-1.7690402e-11
-4.7110109e-11
-2.2949447e-11
-1.8876408e-10
-2.0766731e-10
-5.3744687e-10
-1.5345266e-14
-7.6899651e-14
-1.2261485e-13
-4.3197124e-13
-1.5346077e-13
-1.1063314e-12
-2.7718268e-13
-1.6431412e-12
-1.5943219e-12
-8.8653764e-13
-5.4836178e-12
-1.4853584e-12
-1.146583e-11
-9.755533e-12
-1.9850904e-11
-5.3405943e-11
-2.5546105e-11
-2.1318168e-10
-2.3554994e-10
-6.0350974e-10
-1.5074291e-14
-7.7640822e-14
-1.2904054e-13
-4.7387655e-13
-1.3827709e-13
-1.2221476e-12
-2.7818156e-13
-1.8073886e-12
-1.7920877e-12
-9.7062549e-13
-6.1980934e-12
-1.6586326e-12
-1.2904835e-11
-1.1059585e-11
-2.2155219e-11
-6.0331979e-11
-2.8276732e-11
-2.3962078e-10
-2.6590067e-10
-6.7418947e-10
-1.4819468e-14
-7.6539171e-14
-1.3439632e-13
-5.1276694e-13
-1.2059627e-13
-1.3385577e-12
-2.7638699e-13
-1.9772413e-12
-2.0026612e-12
-1.0587281e-12
-6.9699191e-12
-1.8499242e-12
-1.4456561e-11
-1.2507966e-11
-2.4599036e-11
-6.7939546e-11
-3.1132428e-11
-2.6815502e-10
-2.988503e-10
-7.4950017e-10
-1.456486e-14
-7.3483496e-14
-1.3898668e-13
-5.475888e-13
-1.0118479e-13
-1.4541754e-12
-2.7119252e-13
-2.1509655e-12
-2.2239954e-12
-1.1503219e-12
-7.7964998e-12
-2.0608905e-12
-1.6118581e-11
-1.4113484e-11
-2.7171593e-11
-7.627252e-11
-3.4098064e-11
-2.9882269e-10
-3.3451517e-10
-8.2936171e-10
-1.4343107e-14
-6.8861929e-14
-1.3734643e-13
-5.7854763e-13
-8.1037661e-14
-1.5681248e-12
-2.6294938e-13
-2.3281818e-12
-2.454123e-12
-1.2457819e-12
-8.6736847e-12
-2.2939872e-12
-1.7885255e-11
-1.5889364e-11
-2.9857003e-11
-8.5372719e-11
-3.7156356e-11
-3.3163553e-10
-3.7298694e-10
-9.1362704e-10
-1.4105677e-14
-6.2926491e-14
-1.3610949e-13
-6.0074583e-13
-6.084754e-14
-1.6784254e-12
-2.5079239e-13
-2.5066857e-12
-2.6894385e-12
-1.3446146e-12
-9.5930256e-12
-2.5508144e-12
-1.9744092e-11
-1.7845852e-11
-3.2630601e-11
-9.5268045e-11
-4.0283272e-11
-3.6655179e-10
-4.143277e-10
-1.0020338e-09
-1.3804375e-14
-5.6470575e-14
-1.5162532e-13
-6.1494868e-13
-4.2865017e-14
-1.7834998e-12
-2.3480512e-13
-2.6859801e-12
-2.9265375e-12
-1.4475653e-12
-1.054442e-11
-2.8338864e-12
-2.1677903e-11
-1.9992401e-11
-3.5460523e-11
-1.0597705e-10
-4.3453168e-11
-4.0348392e-10
-4.5855746e-10
-1.0942366e-09
-1.3335254e-14
-5.0780642e-14
-1.3496756e-13
-6.3325996e-13
-2.977371e-14
-1.8789206e-12
-2.140793e-13
-2.8636674e-12
-3.1603205e-12
-1.5546068e-12
-1.1513544e-11
-3.1447582e-12
-2.3661386e-11
-2.2333381e-11
-3.8304025e-11
-1.1749536e-10
-4.6634129e-11
-4.4226867e-10
-5.0564614e-10
-1.1897634e-09
-1.2584269e-14
-4.8048439e-14
-1.037873e-13
-6.364141e-13
-1.5405808e-14
-1.9648068e-12
-1.8891627e-13
-3.0394844e-12
-3.3859925e-12
-1.6671918e-12
-1.2485165e-11
-3.4860819e-12
-2.5664467e-11
-2.4870843e-11
-4.1110584e-11
-1.2980026e-10
-4.9794605e-11
-4.8267643e-10
-5.555004e-10
-1.2880586e-09
-1.1404295e-14
-4.9798385e-14
-8.9427448e-14
-6.4375857e-13
-1.5979785e-14
-2.0318629e-12
-1.5895998e-13
-3.2107615e-12
-3.5968362e-12
-1.7861282e-12
-1.344036e-11
-3.8595527e-12
-2.7649587e-11
-2.7600062e-11
-4.3819218e-11
-1.4283621e-10
-5.2899189e-11
-5.2438129e-10
-6.0795319e-10
-1.3884509e-09
-9.5287344e-15
-5.7705959e-14
-8.6148848e-14
-5.4220219e-13
-4.5402918e-14
-2.0757781e-12
-1.2821352e-13
-3.3782523e-12
-3.7864532e-12
-1.913755e-12
-1.4359932e-11
-4.2681052e-12
-2.9576439e-11
-3.0513303e-11
-4.6363648e-11
-1.5652142e-10
-5.5917189e-11
-5.6697609e-10
-6.6275193e-10
-1.490216e-09
-6.6785541e-15
-7.753662e-14
-6.3946542e-14
-5.4030028e-13
3.1528274e-14
-2.099447e-12
-9.4998662e-14
-3.5375923e-12
-3.9449128e-12
-2.0519858e-12
-1.5221074e-11
-4.7132183e-12
-3.1399411e-11
-3.3595058e-11
-4.8670871e-11
-1.7073435e-10
-5.8819087e-11
-6.0994792e-10
-7.1954933e-10
-1.5925628e-09
-2.5622476e-15
-9.7137972e-14
-7.2088433e-14
-5.5072708e-13
2.4199826e-14
-2.0503459e-12
-7.4064995e-14
-3.6734775e-12
-4.064754e-12
-2.2038714e-12
-1.6001125e-11
-5.1975002e-12
-3.307286e-11
-3.6826419e-11
-5.0669041e-11
-1.8532432e-10
-6.1586029e-11
-6.5270323e-10
-7.7789782e-10
-1.6947112e-09
2.8375434e-15
-1.0403179e-13
-3.1416913e-14
-4.0453789e-13
-1.3189059e-13
-2.0006634e-12
-3.778e-14
-3.7942136e-12
-4.1359741e-12
-2.3710205e-12
-1.6673466e-11
-5.7212217e-12
-3.4547866e-11
-4.0179189e-11
-5.2285723e-11
-2.0009908e-10
-6.4207548e-11
-6.9455464e-10
-8.3724465e-10
-1.795906e-09
9.8323144e-15
-1.6456752e-13
-1.4567307e-14
-3.0848251e-13
9.7888711e-14
-2.1027293e-12
-8.4122813e-14
-3.873406e-12
-4.1491058e-12
-2.5628217e-12
-1.721107e-11
-6.2849287e-12
-3.5777709e-11
-4.3620088e-11
-5.3456695e-11
-2.1483959e-10
-6.6688168e-11
-7.3475918e-10
-8.9693459e-10
-1.8955448e-09
1.8501232e-14
-2.0337917e-13
-3.9945071e-14
-2.3821944e-13
1.6213701e-15
-1.5987201e-12
-1.2048565e-13
-3.8792433e-12
-4.1231977e-12
-2.7787881e-12
-1.7583939e-11
-6.8854885e-12
-3.6714625e-11
-4.7102515e-11
-5.4125151e-11
-2.2928798e-10
-6.9041637e-11
-7.7250129e-10
-9.5622825e-10
-1.9932516e-09
2.9164981e-14
-2.5838636e-13
-2.2455934e-14
-2.5589519e-13
-4.1517083e-14
-1.7986481e-12
2.5335799e-13
-3.8235374e-12
-4.0548019e-12
-2.9868595e-12
-1.7755452e-11
-7.5184724e-12
-3.7312241e-11
-5.0573649e-11
-5.4246183e-11
-2.4315144e-10
-7.1324168e-11
-8.0697627e-10
-1.0142796e-09
-2.0893782e-09
4.2093428e-14
-3.2053615e-13
-3.9234675e-14
-2.6271804e-13
-1.0565144e-14
-1.4216432e-12
-1.6917218e-13
-3.6624471e-12
-3.9085475e-12
-3.2329625e-12
-1.7700126e-11
-8.172446e-12
-3.752851e-11
-5.3962375e-11
-5.3778721e-11
-2.5613277e-10
-7.3541841e-11
-8.3739947e-10
-1.0701602e-09
-2.1825087e-09
5.7662784e-14
-3.9880768e-13
-5.7571434e-14
-2.9541392e-13
-6.0317514e-14
-9.4433391e-13
-1.3772685e-13
-3.360297e-12
-3.7464294e-12
-3.3749058e-12
-1.744576e-11
-8.8354812e-12
-3.7335546e-11
-5.7172725e-11
-5.2729865e-11
-2.6792387e-10
-7.565407e-11
-8.6277014e-10
-1.1232046e-09
-2.2635944e-09
7.6514512e-14
-4.8931666e-13
-9.922331e-14
-3.651084e-13
-1.2896678e-13
-7.5824915e-13
1.8111933e-13
-3.2454992e-12
-3.4052342e-12
-3.5065863e-12
-1.6878093e-11
-9.5169432e-12
-3.6636444e-11
-6.0136903e-11
-5.105701e-11
-2.7795099e-10
-7.8181656e-11
-8.8276829e-10
-1.171961e-09
-2.342473e-09
9.3444492e-14
-5.766114e-13
-8.7618687e-14
-1.0316118e-12
4.8291532e-13
-7.0079673e-13
-1.6219713e-13
-2.6939627e-12
-2.9931287e-12
-3.5451106e-12
-1.6142419e-11
-1.0077514e-11
-3.547288e-11
-6.2691035e-11
-4.8663461e-11
-2.8643134e-10
-8.0043203e-11
-8.9722125e-10
-1.214796e-09
-2.4481362e-09
1.653243e-14
-5.7379335e-13
-2.368032e-13
-4.6819525e-13
-1.0912096e-13
-8.6387803e-13
-1.2305058e-12
-9.301494e-13
-2.6429826e-12
-3.3306858e-12
-1.5022247e-11
-1.0336789e-11
-3.4086985e-11
-6.4383794e-11
-4.6407473e-11
-2.9292833e-10
-8.0258943e-11
-8.9879979e-10
-1.2583224e-09
-2.428549e-09
3.4066811e-14
-6.7941437e-13
-2.8018346e-13
-6.7152084e-13
-2.8551139e-13
-8.9787978e-13
-4.8927564e-13
-9.0935408e-13
-2.4821655e-12
-3.2783776e-12
-1.3815339e-11
-1.0663593e-11
-3.0908979e-11
-6.675062e-11
-4.2492534e-11
-2.9065213e-10
-9.4869152e-11
-9.0445825e-10
-1.2836244e-09
-2.3997681e-09
5.4703014e-14
-8.3387455e-13
-3.968377e-13
-7.9478706e-13
-3.4285677e-13
-9.3285668e-13
-9.2043026e-13
-9.3405261e-13
-1.9771452e-12
-2.4080796e-12
-1.2399049e-11
-1.039574e-11
-2.8298261e-11
-6.9589987e-11
-3.0852863e-11
-3.0158109e-10
-8.4364588e-11
-9.4891258e-10
-1.259461e-09
-2.4187695e-09
8.2951834e-14
-9.4461591e-13
-5.7181424e-13
-9.4645e-13
-4.2312269e-13
-1.1235364e-12
-9.6566792e-13
-1.5308876e-12
-1.7277365e-12
-1.3817412e-12
-9.3555115e-12
-8.7818223e-12
-3.1672475e-11
-5.9615173e-11
-3.5474587e-11
-3.4118119e-10
2.0352796e-11
-8.4809922e-10
-1.3942267e-09
-2.4255483e-09
-1.5868356e-13
-7.3370525e-13
-8.2086491e-13
-1.1771483e-12
-6.4479146e-13
-1.1871217e-12
-1.2923983e-12
-7.1641385e-13
-2.8277122e-12
-1.127758e-12
-7.7059732e-12
-8.3575003e-12
-2.3618325e-11
-5.5208452e-11
-4.9749736e-11
-2.2247713e-10
-1.9278242e-10
-7.5740265e-10
-1.3390576e-09
-2.3927663e-09
-6.5512889e-14
-1.050979e-12
-7.1333206e-13
-1.5511587e-12
-9.1262729e-13
-1.7765822e-12
-1.0979488e-12
-1.1213806e-12
-3.2517989e-12
-1.0489777e-12
-6.0106647e-12
-6.6477871e-12
-1.8458344e-11
-5.5041192e-11
-3.2057796e-11
-2.5211012e-10
-1.2241762e-10
-7.800442e-10
-1.3020438e-09
-2.3281062e-09
3.1051008e-15
-1.3613212e-12
-6.8264166e-13
-2.1525511e-12
1.4452962e-12
-4.2983089e-12
-1.2250648e-12
-2.0520286e-12
-2.3758809e-12
-3.0843186e-12
-4.6255737e-12
-7.4003031e-12
-1.2182668e-11
-4.8905263e-11
-2.5094673e-11
-2.4145146e-10
-1.0555002e-10
-7.4324313e-10
-1.2627812e-09
-2.2647617e-09
-2.8322231e-13
-9.7033265e-13
-1.7088632e-12
-1.2462691e-12
-1.0335288e-12
-3.9165047e-12
-1.0563193e-12
-1.2757435e-12
-4.1581457e-12
-2.3472524e-12
3.8522039e-12
-1.6009727e-11
-7.2471791e-12
-4.1131309e-11
-1.9128817e-11
-2.1641846e-10
-1.0276845e-10
-6.8885755e-10
-1.2082536e-09
-2.1739895e-09
3.2507623e-13
-2.3176727e-12
-5.3314156e-13
-3.4252909e-12
2.6560125e-12
-6.0763389e-12
-1.321391e-12
-1.7822701e-12
-5.0014976e-12
9.6880818e-13
-9.0496408e-12
-9.2909961e-12
-2.8304085e-12
-3.274189e-11
-1.2875614e-11
-1.8626767e-10
-9.4449936e-11
-6.2894401e-10
-1.1354929e-09
-2.0582917e-09
-4.1721021e-13
-8.5610468e-13
-2.7390452e-12
-7.7660317e-13
-2.9747708e-12
-3.4069855e-12
-8.4703934e-13
-3.7261336e-12
-2.7000292e-12
-3.7446035e-12
-8.4174329e-12
-5.0307992e-12
-4.3267787e-12
-2.6784915e-11
-8.3944747e-12
-1.5265998e-10
-7.7325449e-11
-5.5771536e-10
-1.0490858e-09
-1.9183859e-09
4.0257581e-13
-2.4671106e-12
-1.3114437e-12
-2.9022558e-12
1.202187e-12
-5.1479596e-12
-2.4602406e-12
-3.2830909e-12
-4.5318059e-12
-2.7722944e-12
-8.4693746e-12
-5.3970631e-12
-4.0053772e-12
-2.8078248e-11
-5.7111594e-12
-1.1083749e-10
-8.5525173e-11
-4.5553365e-10
-9.3868323e-10
-1.7520137e-09
-2.5817163e-13
-1.3441489e-12
-2.7305189e-12
-1.691846e-12
-3.1930376e-12
-3.6118944e-12
-2.0607291e-12
-4.0364748e-12
-3.9077774e-12
-4.7462765e-12
-6.7160412e-12
-1.1765372e-11
4.7282591e-13
-4.565712e-11
7.777106e-12
-7.0877367e-11
-1.0759551e-10
-3.7682552e-10
-7.9426126e-10
-1.5531355e-09
2.7416849e-13
-2.1861348e-12
-2.4041165e-12
-2.5800702e-12
-5.6950874e-13
-5.4277714e-12
-2.9734738e-12
-4.0227203e-12
-5.3933506e-12
-4.0759204e-12
-9.5682887e-12
-1.0966541e-11
-9.8089193e-13
-5.2166534e-11
4.057883e-11
-1.0179007e-10
1.6764293e-10
-5.1611965e-10
-6.7527365e-10
-1.3237058e-09
-2.1724625e-13
-1.4937108e-12
-3.3675187e-12
-2.220832e-12
-1.4231217e-12
-5.8713741e-12
-3.347838e-12
-5.2768917e-12
-4.5541902e-12
-7.1317716e-12
-7.1379631e-12
-1.6292057e-11
1.6019007e-12
-5.6658265e-11
4.3804415e-11
-1.3972636e-10
-3.4608409e-11
-8.9227462e-11
-6.056069e-10
-1.0423544e-09
4.3813586e-13
-2.6083839e-12
-2.6661564e-12
-3.2003417e-12
-3.4306727e-12
-4.0547506e-12
-4.3813843e-12
-4.5916892e-12
-7.8162518e-12
-3.8479796e-12
-1.447516e-11
-9.3966344e-12
-1.0470282e-11
-4.7475248e-11
2.6363309e-11
-1.461671e-10
1.743708e-11
-1.2456374e-10
-5.4443103e-10
-6.1309848e-10
-5.6196416e-13
-9.4893527e-13
-4.5991092e-12
-2.3768907e-12
-4.3354443e-12
-3.957469e-12
-4.4721753e-12
-8.1762e-12
-3.5350455e-12
-1.3582949e-11
-2.1675093e-12
-3.1589867e-11
1.7577625e-11
-9.249844e-11
7.575082e-11
-2.1660443e-10
1.0745318e-10
-2.857561e-10
-2.7184616e-10
-7.0358215e-10
9.1719422e-13
-3.7111357e-12
-2.2839885e-12
-4.9622782e-12
-3.2036181e-12
-5.1970836e-12
-6.5417212e-12
-5.1378694e-12
-1.163553e-11
-2.8266508e-12
-2.1967098e-11
-6.4080401e-12
-2.3447828e-11
-4.3345423e-11
1.7879747e-12
-1.3000664e-10
-3.3768674e-11
-1.271557e-10
-5.1765638e-10
-1.7240116e-10
-1.0711658e-12
2.9704754e-14
-6.787049e-12
-1.5069504e-12
-6.600981e-12
-4.8232147e-12
-5.7843556e-12
-1.0748474e-11
-3.763878e-12
-1.8998912e-11
-1.2004846e-12
-4.1841998e-11
2.1454845e-11
-1.1377686e-10
8.4024263e-11
-2.4043371e-10
5.214828e-11
-2.0600477e-10
-4.912455e-10
-5.0957424e-11
1.0041181e-12
-3.9911282e-12
-3.0870072e-12
-5.5928001e-12
-4.6874544e-12
-6.5740349e-12
-7.800872e-12
-7.9437339e-12
-1.2642096e-11
-8.7396325e-12
-2.0400788e-11
-2.1048368e-11
-1.1850475e-11
-8.115316e-11
3.1503801e-11
-1.8678775e-10
-5.159388e-11
-1.0558392e-10
-6.3376244e-10
-2.3348029e-10
-1.0292883e-12
-3.5140836e-13
-7.4303959e-12
-2.5946543e-12
-8.007229e-12
-6.244658e-12
-8.1607225e-12
-1.2228623e-11
-8.4225771e-12
-1.9503934e-11
-1.0491106e-11
-3.9276677e-11
9.0496077e-13
-9.9877909e-11
2.6108496e-11
-1.7416293e-10
-1.2604458e-10
-2.888827e-11
-8.1633096e-10
-9.7637648e-11
3.8801248e-13
-2.8064415e-12
-5.8934353e-12
-4.6750065e-12
-7.9606976e-12
-7.5118258e-12
-9.7970258e-12
-1.2503334e-11
-1.2251261e-11
-1.9189559e-11
-1.5374383e-11
-4.3226915e-11
3.8908757e-12
-1.2735416e-10
6.1887184e-11
-2.5912038e-10
-3.9678556e-11
-1.8160388e-10
-7.4051029e-10
-2.3319886e-10
-9.7635902e-13
-8.0770655e-13
-8.3812313e-12
-3.8165352e-12
-9.981003e-12
-8.1077163e-12
-1.1147191e-11
-1.5052734e-11
-1.2671508e-11
-2.4294208e-11
-1.5618456e-11
-4.9629156e-11
-1.4955315e-12
-1.2815864e-10
3.595173e-11
-2.4404196e-10
-9.2232415e-11
-1.9645423e-10
-7.6968832e-10
-3.9001572e-10
1.4275365e-14
-2.4883411e-12
-7.8490426e-12
-5.3326532e-12
-1.0699049e-11
-9.4932924e-12
-1.3083068e-11
-1.6360386e-11
-1.6385802e-11
-2.54844e-11
-2.1808699e-11
-5.1274806e-11
-1.1854862e-11
-1.2773363e-10
4.3332671e-12
-2.1513226e-10
-1.8765388e-10
-1.4819939e-10
-8.9206419e-10
-4.6205185e-10
-1.6730082e-12
2.9371742e-13
-1.1811297e-11
-3.0391774e-12
-1.4709988e-11
-9.1229622e-12
-1.5583677e-11
-2.0078798e-11
-1.5262486e-11
-3.6543858e-11
-1.3938083e-11
-7.5758774e-11
1.0008704e-11
-1.8038425e-10
5.3059372e-11
-3.1253927e-10
-1.1990127e-10
-2.9558304e-10
-8.4015639e-10
-6.9340035e-10
-1.4493279e-13
-2.8896354e-12
-9.5273644e-12
-7.1127292e-12
-1.3538876e-11
-1.2622433e-11
-1.7563978e-11
-2.1151467e-11
-2.2820657e-11
-3.3314459e-11
-3.0783008e-11
-6.4466483e-11
-2.4514581e-11
-1.5275372e-10
-1.6402059e-11
-2.6186318e-10
-2.2946612e-10
-2.7428893e-10
-9.5217041e-10
-8.153369e-10
-2.3374471e-12
9.8040521e-13
-1.5320069e-11
-3.2579889e-12
-1.9819878e-11
-1.1204529e-11
-2.1788524e-11
-2.5547057e-11
-2.1794253e-11
-4.8066113e-11
-2.0817192e-11
-9.517662e-11
-3.4096117e-12
-2.0143749e-10
8.2863187e-13
-3.0799748e-10
-2.582283e-10
-3.2829209e-10
-1.0238435e-09
-9.908078e-10
-9.6046489e-13
-2.1407446e-12
-1.3531448e-11
-7.4947034e-12
-1.9259443e-11
-1.5336561e-11
-2.4429961e-11
-2.7983708e-11
-2.999909e-11
-4.7481583e-11
-3.7344483e-11
-9.1208286e-11
-2.9927002e-11
-2.0010524e-10
-3.3958187e-11
-3.2274703e-10
-3.0649151e-10
-3.9436341e-10
-1.0918719e-09
-1.2020347e-09
-2.3648139e-12
1.2669802e-13
-1.8202476e-11
-5.3912575e-12
-2.5092312e-11
-1.5108057e-11
-2.9891793e-11
-3.2469716e-11
-3.2270049e-11
-6.147996e-11
-3.3293898e-11
-1.1873782e-10
-2.2640181e-11
-2.3588548e-10
-4.8033983e-11
-3.4709441e-10
-3.7200639e-10
-4.5140099e-10
-1.188016e-09
-1.423337e-09
-2.2152986e-12
-1.0873235e-12
-1.8741089e-11
-8.6105821e-12
-2.6091384e-11
-1.9840254e-11
-3.3405228e-11
-3.6690491e-11
-4.2001813e-11
-6.255073e-11
-5.4061318e-11
-1.1413014e-10
-6.1426781e-11
-2.2359348e-10
-1.1710173e-10
-3.3371122e-10
-4.7046074e-10
-5.0981429e-10
-1.2963615e-09
-1.6710001e-09
-1.8659373e-12
-1.8489308e-12
-2.168783e-11
-8.3722577e-12
-3.2504105e-11
-1.9872676e-11
-4.1401164e-11
-4.1629527e-11
-4.6590055e-11
-8.0337917e-11
-4.8920789e-11
-1.5412043e-10
-4.2217212e-11
-2.9575353e-10
-8.6743628e-11
-4.4822187e-10
-4.4916123e-10
-6.8956719e-10
-1.3470736e-09
-1.9781944e-09
-3.4745663e-12
-5.3012293e-13
-2.4924764e-11
-1.1169681e-11
-3.4245917e-11
-2.6939727e-11
-4.4807513e-11
-4.8780588e-11
-5.8945904e-11
-8.1603932e-11
-7.9165136e-11
-1.4268578e-10
-1.0612806e-10
-2.562831e-10
-2.2183652e-10
-3.5480745e-10
-7.0485191e-10
-5.7277165e-10
-1.7366265e-09
-2.0091315e-09
-4.5219519e-13
-6.2036124e-12
-2.4140624e-11
-1.5455071e-11
-3.8998756e-11
-2.9777604e-11
-5.4264793e-11
-5.4970895e-11
-6.8060112e-11
-9.970045e-11
-8.224409e-11
-1.8167083e-10
-1.0186125e-10
-3.2341261e-10
-2.1977805e-10
-4.5965172e-10
-7.2903082e-10
-7.4676438e-10
-1.8635313e-09
-2.323526e-09
-4.1345873e-12
-1.2205041e-12
-3.2659609e-11
-1.4418944e-11
-4.6458442e-11
-3.4633627e-11
-6.1938916e-11
-6.4140268e-11
-8.1325406e-11
-1.0990837e-10
-1.0752872e-10
-1.917981e-10
-1.4670887e-10
-3.3626623e-10
-2.9360744e-10
-4.9993486e-10
-8.2386891e-10
-9.0675376e-10
-1.9989496e-09
-2.7111437e-09
1.3145962e-12
-1.212979e-11
-2.6767818e-11
-2.6733056e-11
-4.4819422e-11
-4.6864698e-11
-6.7317273e-11
-7.623161e-11
-9.5511259e-11
-1.2367647e-10
-1.332542e-10
-2.0750005e-10
-1.9712014e-10
-3.4197304e-10
-4.0940946e-10
-4.7765645e-10
-1.0420907e-09
-9.4464231e-10
-2.2905924e-09
-3.0212749e-09
-2.0382294e-12
-7.6499929e-12
-3.7229172e-11
-2.4674955e-11
-5.7201876e-11
-4.9525827e-11
-8.1308722e-11
-8.6089808e-11
-1.1197331e-10
-1.4314085e-10
-1.5447222e-10
-2.4105167e-10
-2.2574036e-10
-4.030224e-10
-4.4263738e-10
-6.1334077e-10
-1.0591157e-09
-1.257712e-09
-2.341709e-09
-3.5940236e-09
2.147654e-12
-1.6767083e-11
-3.4340851e-11
-3.6928597e-11
-5.759277e-11
-6.4562158e-11
-8.7876874e-11
-1.0310754e-10
-1.2923432e-10
-1.6158661e-10
-1.8852659e-10
-2.6108489e-10
-2.8805956e-10
-4.2508143e-10
-5.5099359e-10
-6.6519586e-10
-1.2077441e-09
-1.4484263e-09
-2.5666847e-09
-4.040131e-09
3.1048289e-12
-2.0716153e-11
-3.7500361e-11
-4.4901089e-11
-6.3255871e-11
-7.7412696e-11
-9.808002e-11
-1.2110036e-10
-1.4834693e-10
-1.8409388e-10
-2.2431898e-10
-2.8678268e-10
-3.5503761e-10
-4.5187643e-10
-6.7437705e-10
-7.071515e-10
-1.4132075e-09
-1.5766478e-09
-2.9253049e-09
-4.3778856e-09
3.9144088e-12
-2.3765756e-11
-4.3390369e-11
-5.0239842e-11
-7.4289171e-11
-8.613135e-11
-1.1516704e-10
-1.3640064e-10
-1.7173497e-10
-2.1140658e-10
-2.5523058e-10
-3.3393937e-10
-3.9591961e-10
-5.3880098e-10
-7.1596854e-10
-8.9695554e-10
-1.43892e-09
-1.9476194e-09
-3.0709747e-09
-4.9352978e-09
7.4927594e-12
-3.2991358e-11
-4.2409635e-11
-6.5282995e-11
-7.579819e-11
-1.0755019e-10
-1.2221676e-10
-1.6307701e-10
-1.9171585e-10
-2.4013552e-10
-3.0015075e-10
-3.6108068e-10
-4.8407768e-10
-5.622446e-10
-8.7204311e-10
-9.3960647e-10
-1.6739973e-09
-2.1101174e-09
-3.4353341e-09
-5.3315218e-09
9.4030544e-12
-3.8757815e-11
-4.6605214e-11
-7.473335e-11
-8.5468121e-11
-1.2144388e-10
-1.3892896e-10
-1.8398175e-10
-2.1741007e-10
-2.7205064e-10
-3.3973001e-10
-4.0818164e-10
-5.4726235e-10
-6.3694027e-10
-9.6030547e-10
-1.0939775e-09
-1.778063e-09
-2.429009e-09
-3.664455e-09
-5.8449142e-09
8.5033966e-12
-3.9233961e-11
-5.7383895e-11
-7.9017181e-11
-1.0092503e-10
-1.3102072e-10
-1.6069299e-10
-2.0229983e-10
-2.4642268e-10
-3.0513573e-10
-3.7727271e-10
-4.6675352e-10
-5.947359e-10
-7.4250714e-10
-1.011934e-09
-1.2945036e-09
-1.8403224e-09
-2.774401e-09
-3.8884922e-09
-6.3284187e-09
1.125194e-11
-4.6763888e-11
-5.2464819e-11
-1.0554334e-10
-9.2673665e-11
-1.6503243e-10
-1.5891388e-10
-2.412107e-10
-2.6071015e-10
-3.4239127e-10
-4.2624778e-10
-4.9059742e-10
-7.072323e-10
-7.4061294e-10
-1.2202942e-09
-1.2696026e-09
-2.1673612e-09
-2.8061204e-09
-4.4216223e-09
-6.5242307e-09
1.0158186e-11
-4.7177411e-11
-7.1529e-11
-9.1992787e-11
-1.2629898e-10
-1.5418485e-10
-1.9890322e-10
-2.4049801e-10
-3.0086028e-10
-3.6750804e-10
-4.5487433e-10
-5.6628895e-10
-7.0911896e-10
-9.0261281e-10
-1.171245e-09
-1.5667086e-09
-2.0617792e-09
-3.2789907e-09
-4.5148613e-09
-6.7138243e-09
1.3354352e-11
-5.5071314e-11
-5.9980917e-11
-1.252113e-10
-1.0647457e-10
-1.9489698e-10
-1.8309636e-10
-2.8404301e-10
-3.0043821e-10
-4.0311278e-10
-4.9200262e-10
-5.7565763e-10
-8.1551178e-10
-8.6370887e-10
-1.3802086e-09
-1.4508589e-09
-2.4429692e-09
-3.2699302e-09
-4.588294e-09
-6.8946038e-09
1.1792907e-11
-5.3376379e-11
-7.7833059e-11
-1.053584e-10
-1.3822547e-10
-1.7408946e-10
-2.1945816e-10
-2.6845465e-10
-3.3253576e-10
-4.0831877e-10
-5.0571386e-10
-6.2247334e-10
-7.9921115e-10
-9.6508164e-10
-1.3394618e-09
-1.5356566e-09
-2.507574e-09
-3.2668705e-09
-4.6425432e-09
-6.8970572e-09
1.1721619e-11
-5.3333872e-11
-7.778354e-11
-1.058731e-10
-1.3817172e-10
-1.7520545e-10
-2.1879319e-10
-2.701965e-10
-3.3223872e-10
-4.073056e-10
-5.1034662e-10
-6.0577775e-10
-8.2541404e-10
-9.1601982e-10
-1.3979278e-09
-1.4245842e-09
-2.4724302e-09
-3.2205575e-09
-4.5352076e-09
-6.6325799e-09
1.1107083e-11
-5.0555471e-11
-7.384735e-11
-1.003606e-10
-1.3076348e-10
-1.6593325e-10
-2.0693261e-10
-2.557784e-10
-3.1349242e-10
-3.8686215e-10
-4.7320718e-10
-6.0083385e-10
-7.0083139e-10
-1.0102516e-09
-1.0738613e-09
-1.6847652e-09
-2.1213786e-09
-2.9525328e-09
-4.1806383e-09
-6.0504678e-09
9.5617613e-12
-4.3528073e-11
-6.3572618e-11
-8.6369606e-11
-1.1252076e-10
-1.4272824e-10
-1.779898e-10
-2.1953615e-10
-2.6944493e-10
-3.2997843e-10
-4.0124583e-10
-5.1329522e-10
-6.1226748e-10
-8.624917e-10
-9.1055213e-10
-1.446994e-09
-1.7711685e-09
-2.493026e-09
-3.5292498e-09
-5.0617383e-09
6.8343701e-12
-3.1110476e-11
-4.5440618e-11
-6.1736055e-11
-8.0420634e-11
-1.0198079e-10
-1.2715066e-10
-1.5671886e-10
-1.9231956e-10
-2.3549995e-10
-2.8420348e-10
-3.7905055e-10
-4.1347409e-10
-6.5175503e-10
-5.938435e-10
-1.0373988e-09
-1.2814491e-09
-1.7604829e-09
-2.476478e-09
-3.533387e-09
2.6780229e-12
-1.1979977e-11
-1.7522861e-11
-2.38216e-11
-3.1046977e-11
-3.9382991e-11
-4.9148698e-11
-6.0550473e-11
-7.4644829e-11
-9.0680686e-11
-1.1266644e-10
-1.4570967e-10
-1.6676251e-10
-2.5445827e-10
-1.9773663e-10
-4.0723313e-10
-4.9703417e-10
-6.7219411e-10
-9.4371939e-10
-1.3414481e-09
-2.6940088e-13
3.9155029e-13
-3.861372e-14
3.9163851e-14
8.9012305e-14
6.8013905e-14
1.1340919e-13
6.7636445e-14
1.1231112e-13
-1.5141088e-13
3.5619773e-13
-1.667774e-13
3.4288863e-13
1.2453899e-13
8.7910982e-14
-3.0916736e-14
-2.7023836e-14
-1.3331646e-14
-2.4377863e-14
-1.212374e-14
-1.1274196e-14
-1.9220157e-13
1.7249797e-13
-1.8086399e-13
1.3666602e-13
8.348538e-15
-7.8399919e-15
-1.310598e-14
8.1090343e-14
1.8144989e-13
9.5719459e-14
-7.860739e-14
1.1586908e-13
-8.0535994e-14
7.1956772e-14
-7.1682723e-15
-5.3095781e-15
-5.6419845e-15
3.5686558e-14
4.3336674e-14
3.0289775e-14