/*--------------------------------*- C++ -*----------------------------------*\
| =========                 |                                                 |
| \\      /  F ield         | OpenFOAM: The Open Source CFD Toolbox           |
|  \\    /   O peration     | Version:  2406                                  |
|   \\  /    A nd           | Website:  www.openfoam.com                      |
|    \\/     M anipulation  |                                                 |
\*---------------------------------------------------------------------------*/
FoamFile
{
    version     2.0;
    format      ascii;
    arch        "LSB;label=32;scalar=64";
    class       volVectorField;
    location    "2406";
    object      moment;
}
// * * * * * * * * * * * * * * * * * * * * * * * * * * * * * * * * * * * * * //

dimensions      [1 2 -2 0 0 0 0];

internalField   uniform (0 0 0);

boundaryField
{
    inlet
    {
        type            calculated;
        value           uniform (0 0 0);
    }
    topWall
    {
        type            symmetry;
    }
    jet
    {
        type            calculated;
        value           uniform (0 0 0);
    }
    outlet
    {
        type            calculated;
        value           uniform (0 0 0);
    }
    bottomWall
    {
        type            calculated;
        value           uniform (0 0 0);
    }
    hump
    {
        type            calculated;
        value           nonuniform List<vector> 
320
(
(0.0070663197 0.00073933591 -0.00036671188)
(0.0072070529 0.0011397864 -0.0011407324)
(0.0074756208 0.0016006437 -0.0020179223)
(0.0076098211 0.0020859083 -0.0029523141)
(0.0077355072 0.0025946687 -0.0039713603)
(0.0077922186 0.0030737016 -0.0050412388)
(0.0077993702 0.0035140118 -0.0061559197)
(0.0077432858 0.0038924007 -0.0072839143)
(0.0076174108 0.0041750232 -0.0083834636)
(0.0074115574 0.0043472202 -0.0094010138)
(0.0071082187 0.0043974255 -0.010262847)
(0.0066673126 0.0042737523 -0.010828582)
(0.0060753796 0.0039666362 -0.010979215)
(0.0053111919 0.0034969757 -0.010587604)
(0.0043062795 0.0028234916 -0.0093885162)
(0.0030712688 0.0020002465 -0.0072821113)
(0.0015167779 0.0010307006 -0.0039401285)
(-0.00025491667 1.9727393e-05 0.00051892414)
(-0.0015440722 -0.00059722716 0.0041674)
(-0.0029106465 -0.0011782229 0.0084917024)
(-0.0045010933 -0.0017823444 0.014005872)
(-0.0059447776 -0.0022532778 0.019619819)
(-0.0073702108 -0.0027009744 0.025791542)
(-0.0089572311 -0.0032197759 0.033248465)
(-0.011739727 -0.0039613391 0.045866479)
(-0.013620953 -0.0042547672 0.055860162)
(-0.015372791 -0.0044918825 0.066218969)
(-0.017321346 -0.0046911232 0.078238145)
(-0.019026814 -0.00477756 0.090077808)
(-0.020688135 -0.0048079647 0.10259689)
(-0.022224257 -0.0047968422 0.11544129)
(-0.023775973 -0.0047767998 0.12932812)
(-0.025365005 -0.0047385213 0.14441139)
(-0.026964661 -0.0046805613 0.16061645)
(-0.028598268 -0.0046034875 0.17813972)
(-0.030266476 -0.0045203905 0.19709635)
(-0.025296104 -0.003526195 0.17135022)
(-0.024978432 -0.003246517 0.1749164)
(-0.024528348 -0.0029780882 0.17719641)
(-0.024109978 -0.0027191064 0.17929058)
(-0.023613057 -0.0024711516 0.18042968)
(-0.0231048 -0.0022389826 0.18110525)
(-0.022604812 -0.0020091649 0.18145101)
(-0.022015108 -0.0018014606 0.18075431)
(-0.021492409 -0.0016030804 0.18023593)
(-0.020921537 -0.0014110359 0.17897868)
(-0.020319218 -0.0012436371 0.17716233)
(-0.019805362 -0.0010756137 0.17577233)
(-0.019217789 -0.00091053011 0.1734339)
(-0.018596034 -0.00077764006 0.17055799)
(-0.018079627 -0.00065031874 0.16836399)
(-0.017679267 -0.00051558013 0.16698913)
(-0.016790058 -0.00038359828 0.16074286)
(-0.01642134 -0.00028312913 0.15925732)
(-0.015836265 -0.00018690902 0.15549421)
(-0.015302569 -9.8965908e-05 0.15202896)
(-0.014783541 -1.7540637e-05 0.14852122)
(-0.014277092 5.7986771e-05 0.1449633)
(-0.013782594 0.00012846205 0.14136016)
(-0.013296918 0.0001940602 0.13769142)
(-0.012814434 0.00025213818 0.13391563)
(-0.012343167 0.00030106801 0.13013064)
(-0.01189381 0.00034334597 0.12645511)
(-0.011471399 0.00038501576 0.12294108)
(-0.011059839 0.00042709793 0.11942441)
(-0.010647938 0.00046586685 0.11580024)
(-0.010235743 0.00049680614 0.11208583)
(-0.0098382648 0.00052032102 0.10845253)
(-0.0094619459 0.00053935811 0.10497367)
(-0.0091075766 0.00055821626 0.10165673)
(-0.00876639 0.00057777241 0.098408723)
(-0.0084322901 0.00059720313 0.09516849)
(-0.0081006593 0.0006137851 0.091894643)
(-0.0077749364 0.00062651773 0.088633372)
(-0.0074577448 0.0006352473 0.085419909)
(-0.0071516973 0.0006410444 0.082286724)
(-0.0068571051 0.0006445673 0.079240593)
(-0.0065725292 0.00064589635 0.076268812)
(-0.0062992143 0.00064580572 0.073388316)
(-0.0060351512 0.0006439183 0.070580043)
(-0.0057811172 0.00064057204 0.067855979)
(-0.0055374525 0.00063632086 0.065222265)
(-0.0053015073 0.00063049204 0.062651735)
(-0.0050761035 0.00062394382 0.060179289)
(-0.0048587881 0.00061637694 0.057778678)
(-0.0046503806 0.00060789428 0.055462133)
(-0.0044510184 0.00059885711 0.053232888)
(-0.0042609975 0.00059010794 0.051094833)
(-0.004077071 0.00058088645 0.049011873)
(-0.0039021101 0.00057266634 0.047017757)
(-0.0037305986 0.00056330173 0.045051006)
(-0.0035669649 0.00055442515 0.043164152)
(-0.0034070728 0.00054476461 0.041310145)
(-0.0032532637 0.00053488253 0.039518123)
(-0.0031044199 0.00052437688 0.037776287)
(-0.0029597828 0.0005125877 0.036077767)
(-0.0028211924 0.00050039614 0.034444653)
(-0.0026877279 0.00048725362 0.032867679)
(-0.0025606301 0.00047390057 0.031361763)
(-0.002438958 0.00045994913 0.029916852)
(-0.0023236493 0.00044647269 0.028543198)
(-0.0022130852 0.00043234806 0.027223688)
(-0.0021081419 0.00041825657 0.025968623)
(-0.0020097239 0.00040491298 0.024788633)
(-0.0019159304 0.00039159924 0.023661789)
(-0.0018288078 0.00038015836 0.022610643)
(-0.0017445812 0.00036994694 0.021588806)
(-0.0016628875 0.00036033407 0.020593498)
(-0.0015840749 0.00035136771 0.019629482)
(-0.0015077862 0.00034326402 0.018692014)
(-0.0014323922 0.00033464451 0.017763557)
(-0.0013594348 0.00032636782 0.016862321)
(-0.0012878803 0.00031781029 0.015976638)
(-0.0012177922 0.00030890992 0.015107701)
(-0.0011496883 0.00030001306 0.014261657)
(-0.0010820006 0.00029026774 0.013420285)
(-0.0010170691 0.00028023726 0.012612936)
(-0.00097595219 0.00027700182 0.012098532)
(-0.00092370719 0.00026852357 0.011449458)
(-0.00076158777 0.00022666018 0.0094379092)
(-0.0010775036 0.00040001589 0.013291365)
(-0.0010221839 0.00039360316 0.012595592)
(-0.00099576505 0.00039881148 0.012253691)
(-0.00094933365 0.00039324361 0.011670749)
(-0.00091870644 0.00039677524 0.011275267)
(-0.00088455982 0.00039707164 0.010839582)
(-0.00085852135 0.00040176615 0.010500783)
(-0.00083320966 0.00040585219 0.010172378)
(-0.00081484041 0.00041394263 0.0099269087)
(-0.00079303027 0.00041922662 0.0096414523)
(-0.0007808508 0.00042946305 0.0094731059)
(-0.00076858839 0.00043853568 0.0093061553)
(-0.00075936684 0.00044836825 0.0091781336)
(-0.00075192532 0.0004578451 0.009074757)
(-0.000746722 0.00046708582 0.0090019932)
(-0.00074192381 0.00047664167 0.0089341636)
(-0.00073877877 0.0004871977 0.0088866171)
(-0.00073655208 0.00049579654 0.0088558714)
(-0.00073532097 0.00050507549 0.0088373755)
(-0.00073368016 0.00051542733 0.0088114354)
(-0.00073371061 0.00052423625 0.0088116401)
(-0.00073357229 0.00053371397 0.0088085517)
(-0.00073392946 0.00054365606 0.0088116112)
(-0.00073468582 0.00055248909 0.0088227914)
(-0.00073594661 0.00056156016 0.0088407545)
(-0.00073722846 0.00057093052 0.0088588549)
(-0.00073903852 0.00057948259 0.0088862609)
(-0.0007412053 0.00058819546 0.0089186789)
(-0.00074574962 0.00059846231 0.0089809646)
(-0.00074462692 0.00060255879 0.0089786447)
(-0.0007492016 0.00061313393 0.0090417661)
(-0.00072948813 0.00060083279 0.0088172466)
(-0.00078121356 0.0006471513 0.0094582285)
(-0.00075940342 0.00063456407 0.0092065768)
(-0.00076554067 0.00064189559 0.009299815)
(-0.00077085582 0.00064869108 0.009383421)
(-0.00077786393 0.00065698992 0.0094881839)
(-0.0007816742 0.00066223367 0.0095552287)
(-0.00078701723 0.00066923488 0.0096407135)
(-0.00079324328 0.00067567025 0.00974009)
(-0.00079916863 0.00068241348 0.0098354122)
(-0.00080520544 0.00068934937 0.0099326086)
(-0.00081218214 0.00069544751 0.01004504)
(-0.00081976778 0.00070097745 0.010167649)
(-0.00082717781 0.00070711659 0.010287473)
(-0.00083602706 0.00071149765 0.010431147)
(-0.0008375701 0.00070911299 0.010484965)
(-0.00085620984 0.00072174237 0.010752739)
(-0.00087249386 0.00073122931 0.010994494)
(-0.00087506411 0.00073002497 0.011062874)
(-0.00088434384 0.00073587602 0.011214136)
(-0.00089499121 0.00074073611 0.011387119)
(-0.00090106589 0.00074621454 0.011495548)
(-0.00090520449 0.00074679589 0.011585035)
(-0.00092942686 0.00076700057 0.011928138)
(-0.00092754559 0.00076327376 0.011941123)
(-0.00094413535 0.00077702585 0.012189084)
(-0.000960121 0.00078897256 0.012433)
(-0.00096332488 0.00078918349 0.012514212)
(-0.00097520355 0.00079507153 0.012710901)
(-0.00098710892 0.00080098924 0.012909023)
(-0.00099945293 0.00080678575 0.013114697)
(-0.0010124023 0.00081233055 0.013330534)
(-0.0010338051 0.00082137517 0.013663931)
(-0.0010456948 0.00082468119 0.013870515)
(-0.001054832 0.00082421653 0.014043588)
(-0.0010688597 0.00082563602 0.014285228)
(-0.0010822962 0.00082755124 0.014518715)
(-0.0011043025 0.00083667369 0.014867854)
(-0.0011215854 0.00083997091 0.015158107)
(-0.0011383554 0.00084422199 0.015441135)
(-0.0011553214 0.00084863509 0.015728268)
(-0.0011737186 0.00085289794 0.016037936)
(-0.0011895901 0.00085788234 0.01631147)
(-0.0012082609 0.00086115266 0.016629449)
(-0.001225606 0.00086495729 0.016928981)
(-0.0012449427 0.00086934204 0.017258636)
(-0.0012644197 0.00087296196 0.017592975)
(-0.0012841522 0.00087566772 0.017933838)
(-0.0013062002 0.00087802375 0.018311009)
(-0.0013256502 0.00087997764 0.018652087)
(-0.0013469824 0.00088169384 0.019023023)
(-0.001369133 0.00088308723 0.019408323)
(-0.0013924298 0.00088368159 0.019813441)
(-0.0014151191 0.00088424241 0.020211551)
(-0.0014388864 0.00088470179 0.020627871)
(-0.001462711 0.00088475581 0.021047547)
(-0.0014882906 0.00088437495 0.021496104)
(-0.0015107541 0.00088304034 0.021900922)
(-0.0015369542 0.00088123206 0.022364488)
(-0.0015627858 0.00088020403 0.02282413)
(-0.0015886454 0.00087803011 0.02328755)
(-0.0016162713 0.00087557898 0.02378037)
(-0.0016426377 0.00087184372 0.024257608)
(-0.0016706175 0.00086779971 0.024762078)
(-0.0016965882 0.0008644788 0.025237823)
(-0.0017266615 0.00085902737 0.025780517)
(-0.0017552708 0.00085398137 0.026303192)
(-0.0017852064 0.00084892922 0.026849006)
(-0.0018141528 0.00084226217 0.027383561)
(-0.0018426812 0.00083530145 0.027914579)
(-0.0018751889 0.00082793478 0.028510338)
(-0.0019047645 0.00082087927 0.029063455)
(-0.0019378459 0.00081240186 0.029675086)
(-0.0019682369 0.00080468277 0.030247454)
(-0.0020000056 0.00079510386 0.030845614)
(-0.0020319806 0.00078726859 0.031449172)
(-0.0020657401 0.00077792376 0.032085076)
(-0.0020972217 0.00076986648 0.032687789)
(-0.0021316124 0.00076052939 0.033340693)
(-0.0021618353 0.00075182608 0.033930731)
(-0.002196058 0.00074208353 0.034588379)
(-0.0022296182 0.00073166157 0.035239583)
(-0.0022641572 0.00072213191 0.035909812)
(-0.0022962405 0.00071104148 0.036545271)
(-0.0023320888 0.00069945434 0.037245311)
(-0.0023659994 0.00069001462 0.037917244)
(-0.0024010332 0.00067984354 0.038611788)
(-0.002435318 0.00066996118 0.039298285)
(-0.0024687209 0.00065995523 0.039974675)
(-0.0028865697 0.00074762917 0.046914391)
(-0.0028818091 0.00072188137 0.047021753)
(-0.0028776123 0.00069644483 0.047135877)
(-0.0028711321 0.00067258229 0.047209422)
(-0.0028654839 0.00064939737 0.047294061)
(-0.0028578412 0.00062756896 0.04734277)
(-0.002850299 0.00060618108 0.047390536)
(-0.0028410193 0.00058659783 0.047406232)
(-0.0028330998 0.00056770388 0.047442056)
(-0.0028220936 0.00055137269 0.047422808)
(-0.0028101468 0.0005350692 0.047385045)
(-0.0027982038 0.00051902721 0.047344606)
(-0.0027849095 0.00050388641 0.047278321)
(-0.0027717566 0.00048874718 0.047211721)
(-0.0027572995 0.0004747793 0.04711983)
(-0.0027417416 0.00046107272 0.04700619)
(-0.0027268582 0.00044694295 0.046901407)
(-0.0027113627 0.0004338227 0.046783081)
(-0.0026951646 0.00042181395 0.046649573)
(-0.002677024 0.00041024437 0.04647939)
(-0.0026609113 0.00039802887 0.046341718)
(-0.0026428584 0.0003877897 0.04616703)
(-0.0026230051 0.00037765402 0.045957843)
(-0.0026047608 0.00036685119 0.045774019)
(-0.0025854362 0.00035754755 0.04556806)
(-0.002563415 0.00034859178 0.045311411)
(-0.0025431436 0.00033832033 0.045082819)
(-0.0025215641 0.00032896605 0.044827862)
(-0.0024992151 0.00031942251 0.044556134)
(-0.0024771048 0.00030924231 0.044285632)
(-0.0024548516 0.00029925946 0.044009476)
(-0.0024321281 0.00028947663 0.043721789)
(-0.0024093781 0.00027967341 0.043430566)
(-0.0023870131 0.00027031459 0.043143228)
(-0.0023618551 0.00026183717 0.042802206)
(-0.0023383376 0.00025185505 0.042487922)
(-0.0023132815 0.00024260363 0.042142523)
(-0.0022885539 0.00023219064 0.041800069)
(-0.0022629401 0.00022173517 0.041438301)
(-0.0022397954 0.00021021953 0.041118795)
(-0.0022131852 0.00020044808 0.040732517)
(-0.0021903938 0.00018826239 0.040413666)
(-0.0021639182 0.00017833706 0.040023758)
(-0.0021406574 0.0001660262 0.039690475)
(-0.002115504 0.00015534482 0.039319162)
(-0.0020913246 0.00014382295 0.038963109)
(-0.0020671059 0.00013254943 0.038603511)
(-0.0020430259 0.00012110994 0.038243738)
(-0.0020197408 0.00010956637 0.037896149)
(-0.0019963151 9.860189e-05 0.037543257)
(-0.0019737301 8.8098368e-05 0.037203579)
(-0.0019503644 7.8347853e-05 0.036846621)
(-0.0019275031 6.8036486e-05 0.036496663)
(-0.0019056133 5.8039103e-05 0.036162648)
(-0.0018842373 4.9150846e-05 0.035836007)
(-0.0018613923 4.1248827e-05 0.035479041)
(-0.0018410642 3.2870359e-05 0.035167751)
(-0.0018184445 2.6099731e-05 0.0348104)
(-0.0017994667 1.8715213e-05 0.034520579)
(-0.0017777916 1.4043849e-05 0.034176856)
(-0.0017586176 9.5013841e-06 0.033879096)
(-0.001737336 7.1201548e-06 0.033538638)
(-0.0017177246 5.6417155e-06 0.033228336)
(-0.0016940391 6.4209408e-06 0.032837054)
(-0.0016722433 5.7382837e-06 0.032480189)
(-0.001648141 6.460564e-06 0.032076297)
(-0.0016247352 6.6892469e-06 0.031683704)
(-0.0015993826 6.4895106e-06 0.031250859)
(-0.0015776725 5.1015346e-06 0.030886991)
(-0.0015529175 5.8525987e-06 0.030461341)
(-0.0015304261 5.633075e-06 0.030077927)
(-0.0015060714 6.1953767e-06 0.029655757)
(-0.0014839984 6.7656329e-06 0.029276416)
(-0.0014585536 9.0880255e-06 0.028828429)
(-0.0014342908 1.0352205e-05 0.028401627)
(-0.0014069422 1.143074e-05 0.02791149)
(-0.0013820667 9.7042838e-06 0.027468186)
(-0.0013551048 7.30251e-06 0.026981214)
(-0.0013484369 1.6873509e-06 0.026897073)
(-0.0012958405 -3.653395e-06 0.025894089)
)
;
    }
    defaultFaces
    {
        type            empty;
    }
}


// ************************************************************************* //
