/*--------------------------------*- C++ -*----------------------------------*\
| =========                 |                                                 |
| \\      /  F ield         | OpenFOAM: The Open Source CFD Toolbox           |
|  \\    /   O peration     | Version:  2406                                  |
|   \\  /    A nd           | Website:  www.openfoam.com                      |
|    \\/     M anipulation  |                                                 |
\*---------------------------------------------------------------------------*/
FoamFile
{
    version     2.0;
    format      ascii;
    arch        "LSB;label=32;scalar=64";
    class       volScalarField;
    location    "2406";
    object      nut;
}
// * * * * * * * * * * * * * * * * * * * * * * * * * * * * * * * * * * * * * //

dimensions      [0 2 -1 0 0 0 0];

internalField   nonuniform List<scalar> 
69120
(
1.9255654e-14
5.318745e-14
1.5734519e-13
3.7872449e-13
7.5017228e-13
1.3145495e-12
2.1265026e-12
3.2514704e-12
4.735683e-12
6.6282585e-12
8.9393996e-12
1.1643398e-11
1.4672709e-11
1.7879864e-11
2.1030956e-11
2.3854663e-11
2.6170735e-11
2.7897375e-11
2.908685e-11
2.9782254e-11
1.9181545e-12
4.9305282e-12
1.4608416e-11
3.512687e-11
6.95016e-11
1.2169988e-10
1.9676722e-10
3.0073925e-10
4.3788019e-10
6.12712e-10
8.2617257e-10
1.0758601e-09
1.355516e-09
1.6515218e-09
1.9422818e-09
2.2027814e-09
2.4164204e-09
2.5756736e-09
2.6853759e-09
2.749509e-09
1.8848558e-11
4.6031557e-11
1.3676416e-10
3.2815851e-10
6.4792315e-10
1.133003e-09
1.8301406e-09
2.7951352e-09
4.0673612e-09
5.688412e-09
7.6666087e-09
9.9791583e-09
1.2567591e-08
1.5305641e-08
1.7993483e-08
2.0400319e-08
2.2373415e-08
2.3843791e-08
2.4856467e-08
2.5448408e-08
9.2622373e-11
2.1666642e-10
6.463994e-10
1.5457838e-09
3.0424499e-09
5.3096065e-09
8.5645262e-09
1.3065649e-08
1.8994583e-08
2.6541878e-08
3.5742578e-08
4.6486033e-08
5.8496291e-08
7.1185323e-08
8.3626753e-08
9.475598e-08
1.0387228e-07
1.1066179e-07
1.1533592e-07
1.1806727e-07
3.2376114e-10
7.3084231e-10
2.1927371e-09
5.2192208e-09
1.0229649e-08
1.7804741e-08
2.8663747e-08
4.3657288e-08
6.3377559e-08
8.8439249e-08
1.1893697e-07
1.5447876e-07
1.9412896e-07
2.359346e-07
2.7684339e-07
3.1337502e-07
3.4325918e-07
3.6549359e-07
3.8078977e-07
3.8972351e-07
9.2094334e-10
2.0246375e-09
6.120409e-09
1.4480463e-08
2.8232186e-08
4.8969629e-08
7.8632134e-08
1.1949347e-07
1.7310955e-07
2.4106969e-07
3.2353845e-07
4.1935616e-07
5.2591443e-07
6.3792245e-07
7.4720825e-07
8.4455659e-07
9.2403478e-07
9.8308154e-07
1.023661e-06
1.0473422e-06
2.2625198e-09
4.9255219e-09
1.5039497e-08
3.5318337e-08
6.8416086e-08
1.1815856e-07
1.8908831e-07
2.8646547e-07
4.1378857e-07
5.7455114e-07
7.6883586e-07
9.9359675e-07
1.2424556e-06
1.5029333e-06
1.7560568e-06
1.9807466e-06
2.1636845e-06
2.2993121e-06
2.3923824e-06
2.4466297e-06
4.9578907e-09
1.1103459e-08
3.3809739e-08
7.8688982e-08
1.5125116e-07
2.5982088e-07
4.1396564e-07
6.2457712e-07
8.985871e-07
1.2426992e-06
1.6562141e-06
2.1317696e-06
2.655127e-06
3.1996402e-06
3.7256793e-06
4.190171e-06
4.5667117e-06
4.8449334e-06
5.0353825e-06
5.1461573e-06
9.9946737e-09
2.371158e-08
7.1224009e-08
1.6401633e-07
3.1235822e-07
5.330299e-07
8.4450258e-07
1.2673253e-06
1.8137014e-06
2.494818e-06
3.3068553e-06
4.2327799e-06
5.242473e-06
6.2829559e-06
7.2783358e-06
8.1492732e-06
8.8498761e-06
9.3644163e-06
9.7150604e-06
9.9182601e-06
1.8879178e-08
4.8450424e-08
1.4286715e-07
3.2493047e-07
6.120719e-07
1.0360499e-06
1.6298634e-06
2.4290141e-06
3.4520786e-06
4.714016e-06
6.200519e-06
7.8724563e-06
9.6681037e-06
1.1488874e-05
1.3202586e-05
1.4679986e-05
1.5854015e-05
1.6708223e-05
1.7286415e-05
1.7619627e-05
3.3797351e-08
9.5391927e-08
2.7593835e-07
6.1856561e-07
1.1503132e-06
1.92805e-06
3.0062335e-06
4.4400447e-06
6.2505002e-06
8.4470824e-06
1.0984677e-05
1.3776739e-05
1.6705725e-05
1.9606578e-05
2.227665e-05
2.4534714e-05
2.6302123e-05
2.7573685e-05
2.8427521e-05
2.8916291e-05
5.7757958e-08
1.81656e-07
5.1731955e-07
1.140428e-06
2.0892586e-06
3.4601479e-06
5.3339354e-06
7.7820749e-06
1.0807259e-05
1.4383789e-05
1.8397066e-05
2.2680543e-05
2.7041787e-05
3.1242709e-05
3.5014513e-05
3.8139555e-05
4.0547559e-05
4.2260364e-05
4.3401251e-05
4.404966e-05
9.467177e-08
3.3461096e-07
9.4690625e-07
2.0477012e-06
3.6865518e-06
6.0151786e-06
9.1316108e-06
1.3093409e-05
1.783236e-05
2.3237317e-05
2.9084388e-05
3.5111193e-05
4.1055103e-05
4.6622181e-05
5.1501278e-05
5.5466108e-05
5.847728e-05
6.0596884e-05
6.199829e-05
6.2789012e-05
1.4930944e-07
6.0068557e-07
1.6990513e-06
3.5941574e-06
6.3386665e-06
1.0142737e-05
1.507166e-05
2.1094169e-05
2.7998094e-05
3.5547967e-05
4.3402354e-05
5.1222443e-05
5.8707467e-05
6.5542687e-05
7.1407029e-05
7.6093274e-05
7.9608784e-05
8.2061609e-05
8.3672958e-05
8.4575686e-05
2.2707323e-07
1.0548264e-06
2.9947466e-06
6.1757422e-06
1.0618254e-05
1.6546499e-05
2.3883441e-05
3.2414127e-05
4.1740621e-05
5.1513964e-05
6.1313654e-05
7.0774937e-05
7.9604293e-05
8.7502129e-05
9.4162872e-05
9.9414728e-05
0.00010331629
0.00010601928
0.0001077855
0.00010876804
3.3350985e-07
1.810985e-06
5.1807622e-06
1.0365268e-05
1.7251999e-05
2.5963454e-05
3.6158088e-05
4.7394352e-05
5.9123295e-05
7.0950134e-05
8.2445316e-05
9.3275193e-05
0.0001031894
0.00011192352
0.00011919612
0.00012487279
0.00012905871
0.00013194255
0.00013381844
0.00013485445
4.7349377e-07
3.0251288e-06
8.7449515e-06
1.686781e-05
2.6966721e-05
3.8938758e-05
5.2146235e-05
6.5980379e-05
7.9848862e-05
9.3404734e-05
0.00010627504
0.0001181931
0.00012896333
0.00013835566
0.00014610592
0.00015210975
0.00015651115
0.00015952929
0.00016148436
0.0001625556
6.5004571e-07
4.8743638e-06
1.4225513e-05
2.6317418e-05
4.0223754e-05
5.5615697e-05
7.1678152e-05
8.7781416e-05
0.00010341985
0.00011836758
0.00013234042
0.0001451432
0.00015662442
0.00016657365
0.00017472957
0.00018100851
0.00018558776
0.00018871368
0.00019072974
0.00019182433
8.6283141e-07
7.5087717e-06
2.1973914e-05
3.8980265e-05
5.7006937e-05
7.5686414e-05
9.4266464e-05
0.00011226315
0.00012935183
0.00014545518
0.00016037392
0.00017396715
0.00018610668
0.00019658327
0.00020512384
0.00021165923
0.00021639936
0.00021961866
0.00022168427
0.00022279342
1.1065022e-06
1.1006634e-05
3.1972251e-05
5.4601279e-05
7.6824404e-05
9.8540721e-05
0.00011932448
0.00013895651
0.0001573285
0.00017450138
0.00019033787
0.00020472835
0.00021754821
0.00022857404
0.00023751016
0.00024430087
0.0002491935
0.00025249534
0.00025460019
0.00025571488
1.3691829e-06
1.535157e-05
4.3869703e-05
7.2518002e-05
9.8915782e-05
0.00012350544
0.0001463641
0.00016758031
0.00018725283
0.00020555631
0.00022239148
0.00023766255
0.00025123529
0.00026286237
0.00027221925
0.00027926809
0.00028430335
0.00028767348
0.00028980376
0.00029091211
1.631571e-06
2.0423463e-05
5.7129872e-05
9.1920168e-05
0.00012250953
0.00015002647
0.00017508498
0.00019805643
0.00021921725
0.00023883497
0.00025683296
0.00027312131
0.00028755065
0.00029984541
0.00030965003
0.00031695391
0.00032211316
0.00032552878
0.00032766374
0.00032874896
1.867249e-06
2.6002874e-05
7.1170683e-05
0.00011207328
0.00014698633
0.00017772849
0.00020535808
0.00023045516
0.00025343741
0.00027465336
0.00029404375
0.00031152566
0.00032693574
0.00033997019
0.00035024382
0.00035778755
0.00036303832
0.00036646432
0.00036857365
0.00036961255
2.0448662e-06
3.1788601e-05
8.5451226e-05
0.00013241855
0.0001719167
0.00020638154
0.00023715479
0.00026491703
0.00029018191
0.0003133712
0.00033444414
0.00035333269
0.00036986571
0.00038371485
0.00039446986
0.00040222261
0.00040751524
0.00041090139
0.00041294321
0.00041390491
2.1327309e-06
3.7421049e-05
9.9502433e-05
0.0001525668
0.00019702075
0.00023583487
0.00027047003
0.00030158005
0.00032971155
0.00035534488
0.00037845871
0.00039901093
0.00041683245
0.00043157707
0.00044281726
0.00045073113
0.00045599657
0.00045927544
0.00046119459
0.00046203956
2.1059489e-06
4.2503049e-05
0.0001129189
0.00017224129
0.00022210503
0.00026595934
0.00030526534
0.00034052454
0.00037223059
0.00040088827
0.00042648693
0.00044901957
0.00046833059
0.00048406493
0.00049578922
0.0005037999
0.00050894872
0.00051203418
0.00051376098
0.00051444021
1.9553738e-06
4.6613468e-05
0.00012533158
0.00019121202
0.00024700515
0.00029661122
0.00034143886
0.00038173877
0.00041784957
0.00045023792
0.00047887435
0.00050378675
0.00052484224
0.00054168697
0.00055389671
0.00056192651
0.00056684929
0.00056963585
0.00057108522
0.00057153982
1.6961645e-06
4.9313961e-05
0.00013637378
0.00020924124
0.00027154121
0.00032761181
0.00037881729
0.00042510518
0.00046656045
0.00050352231
0.00053588269
0.0005636843
0.00058681777
0.00060493851
0.00061764936
0.00062561329
0.00063018298
0.00063254629
0.0006336177
0.00063377892
1.3628104e-06
5.0180622e-05
0.00014564682
0.00022604287
0.00029548356
0.00035873276
0.00041715885
0.00047040336
0.00051822612
0.00056073769
0.00059765929
0.0006289981
0.000654651
0.00067428276
0.00068754184
0.00069535779
0.00069943479
0.0007012339
0.00070181237
0.00070160242
1.0043734e-06
4.8831352e-05
0.00015268671
0.00024125204
0.00031852518
0.00038967964
0.00045615552
0.00051732206
0.00057258423
0.00062173479
0.00066421019
0.00069989598
0.00072864876
0.00075012563
0.00076403471
0.00077163875
0.0007750797
0.00077616178
0.00077612061
0.00077545456
6.755094e-07
4.4970458e-05
0.00015693077
0.00025439971
0.00034025687
0.00042007149
0.00049542654
0.00056546955
0.00062926084
0.00068621922
0.00073538223
0.00077639734
0.00080899703
0.00083278488
0.00084752938
0.00085489689
0.00085756817
0.00085777656
0.00085698214
0.00085577135
4.1728752e-07
3.8503826e-05
0.00015768297
0.00026488673
0.00036014306
0.00044941718
0.0005345008
0.00061437315
0.0006877844
0.00075376338
0.00081085846
0.00085835066
0.000895728
0.0009224555
0.00093833764
0.00094551052
0.00094730712
0.00094649346
0.00094481311
0.00094297051
2.4311488e-07
2.9747122e-05
0.00015407699
0.00027195311
0.00037749464
0.00047708889
0.00057279028
0.00066346388
0.00074758962
0.00082382145
0.00089016643
0.00094542367
0.00098869369
0.0010191756
0.0010366479
0.0010437666
0.0010446367
0.0010426777
0.0010399908
0.0010374387
1.4045219e-07
1.9727636e-05
0.0001450445
0.00027464033
0.00039143654
0.00050228982
0.00060955761
0.00071204758
0.0008080046
0.00089573622
0.0009726922
0.0010371071
0.0010875515
0.0011227975
0.0011424918
0.0011498292
0.0011498036
0.0011466226
0.0011428355
0.0011395159
8.5557526e-08
1.0393238e-05
0.00012932949
0.00027174372
0.00040086542
0.00052401405
0.00064387848
0.00075926638
0.00086822059
0.00096872872
0.0010576885
0.0011327261
0.0011917626
0.0012329699
0.0012557146
0.001263708
0.0012629321
0.0012585249
0.0012535899
0.0012494776
5.7377566e-08
4.0288493e-06
0.00010571517
0.00026175044
0.00040439188
0.00054099574
0.00067459732
0.00080405351
0.00092724827
0.0010418677
0.0011442662
0.0012314472
0.0013005991
0.0013491305
0.0013759547
0.0013852305
0.0013839961
0.0013784592
0.0013723962
0.0013675151
4.2457293e-08
1.3074439e-06
7.3952718e-05
0.00024276039
0.00040026876
0.00055164383
0.00070026983
0.00084508052
0.00098386472
0.0011140217
0.001231364
0.0013322715
0.0014131484
0.0014705071
0.0015026312
0.001514019
0.0015127924
0.0015063524
0.0014992735
0.0014937147
3.3710755e-08
4.6194145e-07
3.8701173e-05
0.00021250548
0.00038631438
0.00055395748
0.00071908506
0.00088069338
0.0010365518
0.0011837982
0.0013176968
0.0014340028
0.0015283041
0.0015961168
0.0016349378
0.0016494754
0.0016489186
0.0016419593
0.0016340941
0.0016280357
2.7898764e-08
2.1914807e-07
1.2061093e-05
0.00016840364
0.00035983953
0.00054541511
0.00072876295
0.00090882999
0.0010834225
0.0012494732
0.001401688
0.001535194
0.0016447342
0.001724753
0.0017718348
0.0017907668
0.0017917534
0.0017848405
0.0017765609
0.0017702896
2.3700599e-08
1.4094999e-07
2.7324424e-06
0.00010857538
0.00031760458
0.0005228455
0.00072642362
0.00092690451
0.0011221293
0.0013089074
0.0014813893
0.0016340735
0.0017608242
0.0018549505
0.0019120288
0.0019368097
0.0019404372
0.0019343403
0.0019261853
0.0019201177
2.0593221e-08
1.2436941e-07
8.4292401e-07
4.2889091e-05
0.00025625635
0.00048233385
0.00070841528
0.00093164756
0.0011497439
0.0013594434
0.0015543859
0.0017284548
0.0018745978
0.0019849255
0.0020539339
0.0020862419
0.0020938478
0.0020895624
0.0020822628
0.0020769683
1.8263988e-08
9.8096668e-08
4.3319513e-07
8.278155e-06
0.00017243827
0.00041922161
0.00067010542
0.00091890404
0.0011625854
0.0013977733
0.0016176816
0.0018156317
0.0019836194
0.0021124921
0.0021956078
0.0022373775
0.0022505652
0.0022493392
0.0022438449
0.0022400711
1.6450851e-08
6.9406126e-08
3.2313693e-07
1.850892e-06
7.0973719e-05
0.00032924275
0.00060573076
0.00088336694
0.0011559781
0.0014197599
0.0016675522
0.0018922512
0.0020848774
0.0022349571
0.0023346648
0.0023881397
0.0024088202
0.0024121906
0.0024097038
0.0024084056
1.4986338e-08
5.1890132e-08
2.2644802e-07
7.9730417e-07
1.1474335e-05
0.00020908185
0.00050864089
0.00081826336
0.0011239406
0.0014201754
0.0016993521
0.0019541544
0.0021746463
0.0023489948
0.0024681659
0.0025359706
0.0025664236
0.0025762668
0.0025782858
0.002580662
1.3787555e-08
4.1878375e-08
1.4358973e-07
5.4150984e-07
2.2588671e-06
6.8718577e-05
0.00037397112
0.00071513342
0.0010587596
0.0013923357
0.0017072465
0.0019961683
0.0022483144
0.0024504963
0.0025924864
0.0026777193
0.0027206744
0.002739275
0.0027476505
0.0027551903
1.2795893e-08
3.4125313e-08
9.7852366e-08
3.4057648e-07
9.4475534e-07
7.8471442e-06
0.00020214396
0.00056520319
0.00095050881
0.0013276135
0.0016838131
0.0020118284
0.0023001625
0.0025343859
0.0027031585
0.0028095064
0.0028682467
0.0028983855
0.002915394
0.0029299363
1.196343e-08
2.7954083e-08
7.1493366e-08
1.9719891e-07
6.1150592e-07
1.7735446e-06
3.7786178e-05
0.00036407252
0.00078739966
0.0012148151
0.001619492
0.0019929691
0.0023230711
0.0025943871
0.0027946792
0.0029265633
0.0030050536
0.0030501187
0.003078555
0.0031023623
1.1254996e-08
2.3396338e-08
5.2662775e-08
1.2592954e-07
3.3748647e-07
8.5113687e-07
3.3376188e-06
0.00012858011
0.00055985938
0.0010399088
0.0015018412
0.0019291208
0.0023081174
0.0026227174
0.0028602715
0.0030230381
0.0031260868
0.0031902102
0.0032335012
0.0032693409
1.0644681e-08
1.9874141e-08
3.9537662e-08
8.4087779e-08
1.8671435e-07
4.7068115e-07
1.0090681e-06
8.1765493e-06
0.00027578995
0.0007872324
0.001314959
0.0018066944
0.0022439693
0.0026096827
0.0028915804
0.0030917584
0.0032252238
0.0033134516
0.0033757957
0.0034270222
1.0112025e-08
1.7058803e-08
3.0373391e-08
5.6880699e-08
1.1229232e-07
2.3091714e-07
5.2197032e-07
1.0675865e-06
3.0328746e-05
0.00045258148
0.0010389139
0.0016083003
0.002116096
0.0025430606
0.0028782809
0.0031239364
0.0032949969
0.0034135019
0.0035000183
0.0035707257
9.6404595e-09
1.478375e-08
2.3673275e-08
3.9468104e-08
6.8509768e-08
1.230838e-07
2.3316997e-07
4.4969108e-07
9.5376721e-07
0.00010140642
0.00065889541
0.0013115984
0.00190578
0.0024074422
0.0028075328
0.0031087906
0.0033263074
0.0034826392
0.0035995865
0.0036948149
9.2163614e-09
1.2901413e-08
1.8666185e-08
2.7841432e-08
4.2656173e-08
6.7359262e-08
1.0777787e-07
1.8673968e-07
2.736205e-07
9.2734319e-07
0.0002217737
0.00089605813
0.0015886199
0.0021831648
0.0026633297
0.0030330893
0.0033080849
0.0035115069
0.0036665499
0.0037924866
8.8274931e-09
1.1312879e-08
1.4829828e-08
1.9820064e-08
2.6905399e-08
3.6892912e-08
5.1529841e-08
7.0139611e-08
1.1192689e-07
9.3980443e-08
1.9142447e-06
0.00038365367
0.0011360989
0.0018445526
0.0024255631
0.0028805762
0.0032268784
0.0034888203
0.0036913262
0.0038555328
8.4614844e-09
9.9284125e-09
1.1764164e-08
1.4014302e-08
1.670108e-08
1.984431e-08
2.3418219e-08
2.7586781e-08
3.1583808e-08
4.047278e-08
3.0033832e-08
1.0291806e-05
0.00055488081
0.0013600101
0.0020684206
0.0026311355
0.0030663449
0.003400962
0.0036623995
0.0038740922
8.0678836e-09
8.5586975e-09
9.0925306e-09
9.6507427e-09
1.0198257e-08
1.0710499e-08
1.117049e-08
1.1606749e-08
1.1986732e-08
1.254975e-08
1.2317581e-08
1.6574591e-08
4.7504247e-05
0.00072505122
0.00155972
0.002259441
0.0028065626
0.0032315279
0.0035659477
0.0038363511
7.8499251e-09
7.9009683e-09
7.9844257e-09
8.09373e-09
8.2095985e-09
8.3145621e-09
8.4046875e-09
8.4814022e-09
8.5480739e-09
8.6078066e-09
8.7220544e-09
8.3988851e-09
2.2892015e-08
0.00012303269
0.00088847591
0.0017341098
0.0024228925
0.0029607227
0.0033854137
0.0037281986
7.8383441e-09
7.8488267e-09
7.8618569e-09
7.8723164e-09
7.8804532e-09
7.8885132e-09
7.8971043e-09
7.9056445e-09
7.9154577e-09
7.9260846e-09
7.9399903e-09
7.9505053e-09
8.0454569e-09
5.5835909e-08
0.00021301744
0.0010408957
0.0018851629
0.0025643076
0.0031009255
0.003532818
7.8377948e-09
7.8440812e-09
7.8513031e-09
7.85935e-09
7.8682062e-09
7.878256e-09
7.8898921e-09
7.9031366e-09
7.9185575e-09
7.9357224e-09
7.9559513e-09
7.9785212e-09
8.0000779e-09
8.2167512e-09
1.9126779e-07
0.0003065654
0.0011759295
0.0020124953
0.002688257
0.0032301408
7.8376408e-09
7.8437773e-09
7.8506201e-09
7.8584382e-09
7.8669471e-09
7.876656e-09
7.8875247e-09
7.8999038e-09
7.9136951e-09
7.9294244e-09
7.9470727e-09
7.9667995e-09
7.9903735e-09
8.0110963e-09
8.4313294e-09
7.1627056e-07
0.00039263656
0.0012810053
0.0021172576
0.0027958384
7.837502e-09
7.8433287e-09
7.8498231e-09
7.8573318e-09
7.8653186e-09
7.8745036e-09
7.8849533e-09
7.896723e-09
7.9100416e-09
7.9250472e-09
7.9419588e-09
7.961137e-09
7.982612e-09
8.0080401e-09
8.0316727e-09
8.8547177e-09
2.2598545e-06
0.00045612986
0.0013603398
0.0021992747
7.8373634e-09
7.8429038e-09
7.8490871e-09
7.8561635e-09
7.8639144e-09
7.872738e-09
7.8826767e-09
7.8938928e-09
7.9065258e-09
7.9207893e-09
7.9368653e-09
7.9550391e-09
7.9756357e-09
7.9988379e-09
8.0258226e-09
8.0542539e-09
9.4057987e-09
4.6751346e-06
0.00049759195
0.0014106251
7.837224e-09
7.8424437e-09
7.8483494e-09
7.8549627e-09
7.8623944e-09
7.8707698e-09
7.8801941e-09
7.8907867e-09
7.9027712e-09
7.9162377e-09
7.9315024e-09
7.9486761e-09
7.9681395e-09
7.9903363e-09
8.0151756e-09
8.0439227e-09
8.0774315e-09
9.8075141e-09
7.2285243e-06
0.00051157764
7.8370824e-09
7.8420093e-09
7.8475766e-09
7.8538131e-09
7.8608256e-09
7.8687463e-09
7.8776082e-09
7.887648e-09
7.8989041e-09
7.9116904e-09
7.926017e-09
7.9422929e-09
7.9606833e-09
7.9813896e-09
8.0054507e-09
8.0316163e-09
8.063138e-09
8.0982148e-09
1.0137451e-08
9.8277461e-06
7.8369424e-09
7.8415668e-09
7.8468038e-09
7.852656e-09
7.8592711e-09
7.8666846e-09
7.8750605e-09
7.8844478e-09
7.8951053e-09
7.9070455e-09
7.9206136e-09
7.9358497e-09
7.9531332e-09
7.9728261e-09
7.9947867e-09
8.020698e-09
8.0484205e-09
8.0826876e-09
8.118137e-09
1.1354414e-08
7.8368026e-09
7.8411355e-09
7.8460282e-09
7.8515257e-09
7.8576987e-09
7.8646715e-09
7.8724794e-09
7.881325e-09
7.8912481e-09
7.9025101e-09
7.9151485e-09
7.9294869e-09
7.9456674e-09
7.9640246e-09
7.9848276e-09
8.0086926e-09
8.0349298e-09
8.0680836e-09
8.0943731e-09
8.1688688e-09
7.836665e-09
7.8407012e-09
7.8452693e-09
7.8503883e-09
7.8561627e-09
7.8626463e-09
7.8699612e-09
7.8781812e-09
7.8874854e-09
7.8979508e-09
7.909795e-09
7.9231407e-09
7.9382618e-09
7.95538e-09
7.9748519e-09
7.9967898e-09
8.0222357e-09
8.0502604e-09
8.0842322e-09
8.1165834e-09
7.8365296e-09
7.84028e-09
7.8445174e-09
7.8492813e-09
7.8546378e-09
7.8606741e-09
7.8674583e-09
7.8751173e-09
7.8837455e-09
7.8934967e-09
7.9044883e-09
7.9169092e-09
7.9309573e-09
7.9468784e-09
7.9649215e-09
7.9854209e-09
8.008815e-09
8.0351734e-09
8.0658513e-09
8.0998173e-09
7.8363973e-09
7.8398647e-09
7.8437843e-09
7.8481908e-09
7.8531502e-09
7.8587313e-09
7.8650165e-09
7.8720991e-09
7.8800936e-09
7.8891141e-09
7.8992952e-09
7.9107926e-09
7.9237952e-09
7.9385325e-09
7.9552185e-09
7.9742191e-09
7.9957084e-09
8.0203766e-09
8.0481448e-09
8.0802449e-09
7.8362686e-09
7.8394622e-09
7.8430704e-09
7.8471316e-09
7.8517002e-09
7.8568436e-09
7.8626351e-09
7.8691646e-09
7.8765318e-09
7.884848e-09
7.8942332e-09
7.9048311e-09
7.9168177e-09
7.930394e-09
7.9457831e-09
7.9632369e-09
7.9831082e-09
8.005666e-09
8.0313934e-09
8.0606374e-09
7.836144e-09
7.8390722e-09
7.8423797e-09
7.8461049e-09
7.8502958e-09
7.8550134e-09
7.8603278e-09
7.8663184e-09
7.8730791e-09
7.8807101e-09
7.8893235e-09
7.8990488e-09
7.9100479e-09
7.9225054e-09
7.9366139e-09
7.9526287e-09
7.9708298e-09
7.9914959e-09
8.015061e-09
8.041802e-09
7.8360241e-09
7.8386968e-09
7.841715e-09
7.8451163e-09
7.848943e-09
7.8532509e-09
7.8581043e-09
7.8635763e-09
7.8697508e-09
7.8767218e-09
7.8845893e-09
7.8934741e-09
7.9035201e-09
7.9148969e-09
7.927779e-09
7.9423976e-09
7.9589949e-09
7.9778584e-09
7.9993099e-09
8.0236998e-09
7.8359093e-09
7.8383374e-09
7.8410787e-09
7.8441691e-09
7.8476472e-09
7.8515618e-09
7.8559739e-09
7.8609473e-09
7.8665606e-09
7.8728969e-09
7.8800502e-09
7.888127e-09
7.8972598e-09
7.9076001e-09
7.9193069e-09
7.9325847e-09
7.9476594e-09
7.9647775e-09
7.9842411e-09
8.0063502e-09
7.8358e-09
7.8379951e-09
7.840473e-09
7.8432672e-09
7.8464126e-09
7.849953e-09
7.8539435e-09
7.8584423e-09
7.8635195e-09
7.8692511e-09
7.8757221e-09
7.8830287e-09
7.8912901e-09
7.9006424e-09
7.9112284e-09
7.9232317e-09
7.9368542e-09
7.9523158e-09
7.969889e-09
7.9898354e-09
7.8356964e-09
7.837671e-09
7.8398996e-09
7.8424131e-09
7.8452434e-09
7.848429e-09
7.85202e-09
7.8560684e-09
7.8606375e-09
7.8657953e-09
7.8716193e-09
7.8781953e-09
7.8856302e-09
7.8940459e-09
7.9035702e-09
7.9143663e-09
7.9266144e-09
7.9405109e-09
7.9562966e-09
7.9742044e-09
7.8355989e-09
7.8373658e-09
7.8393599e-09
7.841609e-09
7.8441423e-09
7.8469937e-09
7.8502083e-09
7.8538322e-09
7.8579223e-09
7.8625391e-09
7.867753e-09
7.87364e-09
7.8802959e-09
7.8878287e-09
7.8963528e-09
7.9060124e-09
7.9169677e-09
7.9293926e-09
7.9434996e-09
7.9594943e-09
7.8355077e-09
7.8370802e-09
7.8388548e-09
7.8408564e-09
7.8431114e-09
7.84565e-09
7.8485118e-09
7.8517379e-09
7.8553793e-09
7.859489e-09
7.8641311e-09
7.8693722e-09
7.8752979e-09
7.8820037e-09
7.889591e-09
7.8981869e-09
7.907933e-09
7.9189825e-09
7.9315217e-09
7.9457315e-09
7.8354227e-09
7.8368143e-09
7.8383848e-09
7.8401561e-09
7.8421521e-09
7.8443993e-09
7.8469327e-09
7.8497884e-09
7.8530118e-09
7.8566493e-09
7.8607585e-09
7.865398e-09
7.8706435e-09
7.8765788e-09
7.8832941e-09
7.8909003e-09
7.8995218e-09
7.9092936e-09
7.9203766e-09
7.9329314e-09
7.8353442e-09
7.8365684e-09
7.83795e-09
7.8395084e-09
7.8412647e-09
7.8432422e-09
7.8454716e-09
7.8479845e-09
7.8508209e-09
7.8540212e-09
7.8576371e-09
7.8617194e-09
7.8663351e-09
7.8715573e-09
7.8774655e-09
7.8841564e-09
7.8917384e-09
7.9003297e-09
7.9100689e-09
7.9210968e-09
7.8352719e-09
7.8363423e-09
7.8375503e-09
7.8389128e-09
7.8404487e-09
7.8421781e-09
7.844128e-09
7.8463254e-09
7.8488059e-09
7.851604e-09
7.8547658e-09
7.8583354e-09
7.8623715e-09
7.8669376e-09
7.8721034e-09
7.8779528e-09
7.8845796e-09
7.892087e-09
7.9005929e-09
7.9102208e-09
7.8352059e-09
7.8361357e-09
7.837185e-09
7.8383686e-09
7.8397029e-09
7.8412056e-09
7.8428998e-09
7.8448089e-09
7.8469639e-09
7.8493944e-09
7.852141e-09
7.8552417e-09
7.8587477e-09
7.8627139e-09
7.867201e-09
7.8722815e-09
7.878036e-09
7.8845537e-09
7.8919356e-09
7.9002861e-09
7.835146e-09
7.835948e-09
7.8368533e-09
7.8378744e-09
7.8390256e-09
7.8403222e-09
7.8417842e-09
7.8434315e-09
7.8452907e-09
7.8473873e-09
7.8497566e-09
7.8524313e-09
7.8554556e-09
7.8588767e-09
7.8627474e-09
7.8671293e-09
7.8720928e-09
7.8777116e-09
7.884076e-09
7.8912673e-09
7.8350918e-09
7.8357787e-09
7.8365539e-09
7.8374284e-09
7.8384144e-09
7.839525e-09
7.8407773e-09
7.8421883e-09
7.8437806e-09
7.8455759e-09
7.8476046e-09
7.8498947e-09
7.8524842e-09
7.8554133e-09
7.8587274e-09
7.8624794e-09
7.8667286e-09
7.8715387e-09
7.8769839e-09
7.8831348e-09
7.8350433e-09
7.8356269e-09
7.8362856e-09
7.8370286e-09
7.8378665e-09
7.8388103e-09
7.8398746e-09
7.8410737e-09
7.8424266e-09
7.843952e-09
7.8456753e-09
7.8476206e-09
7.8498202e-09
7.8523081e-09
7.8551233e-09
7.8583106e-09
7.86192e-09
7.8660056e-09
7.8706283e-09
7.8758482e-09
7.8350001e-09
7.8354918e-09
7.8360467e-09
7.8366727e-09
7.8373786e-09
7.838174e-09
7.8390707e-09
7.8400812e-09
7.841221e-09
7.8425061e-09
7.8439575e-09
7.8455959e-09
7.8474483e-09
7.8495434e-09
7.8519143e-09
7.8545989e-09
7.8576393e-09
7.8610798e-09
7.8649723e-09
7.8693635e-09
7.834962e-09
7.8353724e-09
7.8358356e-09
7.8363581e-09
7.8369474e-09
7.8376114e-09
7.8383601e-09
7.8392037e-09
7.8401553e-09
7.8412279e-09
7.8424392e-09
7.8438063e-09
7.8453518e-09
7.8470997e-09
7.8490779e-09
7.8513183e-09
7.8538557e-09
7.8567269e-09
7.8599741e-09
7.8636346e-09
7.8349285e-09
7.8352676e-09
7.8356503e-09
7.8360821e-09
7.8365691e-09
7.8371179e-09
7.8377366e-09
7.8384339e-09
7.8392202e-09
7.8401066e-09
7.8411071e-09
7.8422364e-09
7.8435127e-09
7.8449561e-09
7.8465899e-09
7.8484405e-09
7.8505373e-09
7.8529088e-09
7.8555913e-09
7.8586105e-09
7.8348993e-09
7.8351764e-09
7.8354891e-09
7.8358419e-09
7.8362398e-09
7.8366883e-09
7.837194e-09
7.8377638e-09
7.8384063e-09
7.8391305e-09
7.8399479e-09
7.8408702e-09
7.8419125e-09
7.8430909e-09
7.8444249e-09
7.8459368e-09
7.8476494e-09
7.8495883e-09
7.8517764e-09
7.8542437e-09
7.8348742e-09
7.8350977e-09
7.83535e-09
7.8356347e-09
7.8359557e-09
7.8363176e-09
7.8367256e-09
7.8371855e-09
7.8377039e-09
7.8382883e-09
7.8389476e-09
7.8396915e-09
7.8405317e-09
7.8414817e-09
7.842557e-09
7.8437765e-09
7.8451585e-09
7.8467225e-09
7.8484894e-09
7.8504845e-09
7.8348526e-09
7.8350305e-09
7.835231e-09
7.8354574e-09
7.8357127e-09
7.8360005e-09
7.836325e-09
7.8366907e-09
7.837103e-09
7.8375678e-09
7.838092e-09
7.8386833e-09
7.8393509e-09
7.8401055e-09
7.8409596e-09
7.8419294e-09
7.8430286e-09
7.8442711e-09
7.8456808e-09
7.8472691e-09
7.8348344e-09
7.8349734e-09
7.8351302e-09
7.8353071e-09
7.8355067e-09
7.8357317e-09
7.8359853e-09
7.8362713e-09
7.8365937e-09
7.8369572e-09
7.8373668e-09
7.837829e-09
7.8383502e-09
7.8389396e-09
7.839606e-09
7.8403642e-09
7.841224e-09
7.8421958e-09
7.8432982e-09
7.8445393e-09
7.8348191e-09
7.8349255e-09
7.8350455e-09
7.8351809e-09
7.8353336e-09
7.8355059e-09
7.8357e-09
7.8359188e-09
7.8361656e-09
7.836444e-09
7.8367575e-09
7.8371112e-09
7.8375095e-09
7.83796e-09
7.8384692e-09
7.8390492e-09
7.8397073e-09
7.8404508e-09
7.8412947e-09
7.8422443e-09
7.8348063e-09
7.8348855e-09
7.8349749e-09
7.8350757e-09
7.8351894e-09
7.8353176e-09
7.8354622e-09
7.8356249e-09
7.8358087e-09
7.8360155e-09
7.8362492e-09
7.8365122e-09
7.8368085e-09
7.8371426e-09
7.8375208e-09
7.8379529e-09
7.8384419e-09
7.8389947e-09
7.8396228e-09
7.8403293e-09
7.8347957e-09
7.8348523e-09
7.8349162e-09
7.8349883e-09
7.8350696e-09
7.8351613e-09
7.8352646e-09
7.835381e-09
7.8355123e-09
7.8356599e-09
7.835827e-09
7.8360148e-09
7.8362263e-09
7.8364639e-09
7.8367327e-09
7.8370414e-09
7.8373907e-09
7.8377855e-09
7.8382345e-09
7.8387393e-09
7.8347869e-09
7.8348247e-09
7.8348673e-09
7.8349154e-09
7.8349697e-09
7.8350308e-09
7.8350998e-09
7.8351775e-09
7.8352652e-09
7.8353637e-09
7.8354752e-09
7.8356004e-09
7.8357412e-09
7.8358982e-09
7.8360748e-09
7.8362806e-09
7.8365136e-09
7.836777e-09
7.8370766e-09
7.8374133e-09
7.8347793e-09
7.834801e-09
7.8348254e-09
7.834853e-09
7.8348842e-09
7.8349193e-09
7.8349588e-09
7.8350034e-09
7.8350537e-09
7.8351103e-09
7.8351739e-09
7.8352464e-09
7.8353251e-09
7.8354159e-09
7.8355105e-09
7.835627e-09
7.8357603e-09
7.8359112e-09
7.8360831e-09
7.836276e-09
7.8347724e-09
7.8347792e-09
7.8347875e-09
7.8347971e-09
7.8348079e-09
7.8348199e-09
7.8348333e-09
7.8348483e-09
7.8348653e-09
7.8348845e-09
7.8349061e-09
7.8349309e-09
7.8349577e-09
7.8349882e-09
7.8350171e-09
7.8350582e-09
7.8351044e-09
7.8351565e-09
7.8352158e-09
7.8352822e-09
3.0086479e-11
3.0171096e-11
3.0175382e-11
3.01252e-11
3.0036695e-11
2.9928644e-11
2.9812962e-11
2.9696525e-11
2.9583552e-11
2.9476473e-11
2.9376691e-11
2.9284537e-11
2.9200503e-11
2.9124491e-11
2.9055701e-11
2.8994039e-11
2.8939799e-11
2.8892e-11
2.884959e-11
2.881242e-11
2.8780549e-11
2.8753183e-11
2.8729723e-11
2.8710108e-11
2.869393e-11
2.8680537e-11
2.8669745e-11
2.8661344e-11
2.8654982e-11
2.8650208e-11
2.8647188e-11
2.8645408e-11
2.8644662e-11
2.8644517e-11
2.8645076e-11
2.8646399e-11
2.864783e-11
2.8649172e-11
2.8650525e-11
2.8651689e-11
2.865274e-11
2.8653346e-11
2.8653306e-11
2.8652827e-11
2.8651596e-11
2.8649599e-11
2.8646702e-11
2.864287e-11
2.8638425e-11
2.8633212e-11
2.8626838e-11
2.8619361e-11
2.8610809e-11
2.8600822e-11
2.8589295e-11
2.8576026e-11
2.8561682e-11
2.8545726e-11
2.8527866e-11
2.8508433e-11
2.8486904e-11
2.8463563e-11
2.843786e-11
2.8409693e-11
2.8379729e-11
2.8347451e-11
2.8312516e-11
2.8274958e-11
2.8234504e-11
2.8191243e-11
2.8145351e-11
2.8096417e-11
2.8044319e-11
2.7988992e-11
2.7930375e-11
2.7868347e-11
2.7802753e-11
2.7733563e-11
2.7660602e-11
2.7583807e-11
2.7503079e-11
2.7418279e-11
2.7329336e-11
2.7236125e-11
2.7138539e-11
2.7036486e-11
2.6929834e-11
2.6818489e-11
2.670234e-11
2.6581276e-11
2.6455236e-11
2.6324098e-11
2.6187727e-11
2.6046055e-11
2.5898945e-11
2.5746347e-11
2.5588135e-11
2.5424246e-11
2.5254558e-11
2.5078932e-11
2.4897334e-11
2.4709669e-11
2.4515863e-11
2.43158e-11
2.410936e-11
2.3896499e-11
2.3677182e-11
2.3451296e-11
2.3218769e-11
2.2979563e-11
2.2733586e-11
2.2480772e-11
2.2221054e-11
2.1954468e-11
2.1680934e-11
2.1400421e-11
2.1112875e-11
2.081829e-11
2.0516615e-11
2.0207933e-11
1.9892186e-11
1.9569417e-11
1.9239609e-11
1.8902797e-11
1.8559074e-11
1.8208451e-11
1.7850982e-11
1.748675e-11
1.7115871e-11
1.6738414e-11
1.6354528e-11
1.5964312e-11
1.5567941e-11
1.5165561e-11
1.4757337e-11
1.4343508e-11
1.3924288e-11
1.3499934e-11
1.3070627e-11
1.2636772e-11
1.2198531e-11
1.1756355e-11
1.1310531e-11
1.0861543e-11
1.0409676e-11
9.9554887e-12
9.4993888e-12
9.0420022e-12
8.5837858e-12
8.1253889e-12
7.6675027e-12
7.2107964e-12
6.7560734e-12
6.3040361e-12
5.8558587e-12
5.4119681e-12
4.9744301e-12
4.5422978e-12
4.1205229e-12
3.7027031e-12
2.7775872e-09
2.7855341e-09
2.7861987e-09
2.7819537e-09
2.7742716e-09
2.7648728e-09
2.7548427e-09
2.7448537e-09
2.735274e-09
2.7262887e-09
2.7180249e-09
2.7104971e-09
2.7037468e-09
2.6977669e-09
2.69247e-09
2.6878442e-09
2.6839244e-09
2.6806099e-09
2.6777911e-09
2.6754578e-09
2.6736234e-09
2.6722044e-09
2.6711324e-09
2.6704146e-09
2.6700096e-09
2.6698513e-09
2.6699219e-09
2.6702044e-09
2.670663e-09
2.6712518e-09
2.6719924e-09
2.6728313e-09
2.6737498e-09