/*--------------------------------*- C++ -*----------------------------------*\
| =========                 |                                                 |
| \\      /  F ield         | OpenFOAM: The Open Source CFD Toolbox           |
|  \\    /   O peration     | Version:  2406                                  |
|   \\  /    A nd           | Website:  www.openfoam.com                      |
|    \\/     M anipulation  |                                                 |
\*---------------------------------------------------------------------------*/
FoamFile
{
    version     2.0;
    format      ascii;
    arch        "LSB;label=32;scalar=64";
    class       volScalarField;
    location    "2406";
    object      nuTilda;
}
// * * * * * * * * * * * * * * * * * * * * * * * * * * * * * * * * * * * * * //

dimensions      [0 2 -1 0 0 0 0];

internalField   nonuniform List<scalar> 
69120
(
3.9586575e-07
5.1034123e-07
6.6930142e-07
8.3366055e-07
9.8900545e-07
1.1378964e-06
1.2832906e-06
1.427015e-06
1.5676689e-06
1.7051345e-06
1.8375365e-06
1.963039e-06
2.0798724e-06
2.1852458e-06
2.2757477e-06
2.348566e-06
2.4036073e-06
2.442308e-06
2.4679355e-06
2.482556e-06
1.2506316e-06
1.583551e-06
2.0775902e-06
2.5871386e-06
3.0683826e-06
3.5296743e-06
3.9801726e-06
4.4255093e-06
4.8613507e-06
5.2873131e-06
5.6975978e-06
6.0864841e-06
6.4484797e-06
6.774947e-06
7.0553133e-06
7.2808831e-06
7.4513796e-06
7.5712572e-06
7.6506395e-06
7.6959269e-06
2.214261e-06
2.7680509e-06
3.6341723e-06
4.52311e-06
5.361698e-06
6.1657523e-06
6.9511723e-06
7.7276658e-06
8.4876718e-06
9.2304536e-06
9.9458728e-06
1.0623897e-05
1.1254927e-05
1.182393e-05
1.2312492e-05
1.2705509e-05
1.3002546e-05
1.3211384e-05
1.3349671e-05
1.342856e-05
3.2967831e-06
4.0772001e-06
5.3585426e-06
6.6637812e-06
7.8932538e-06
9.0727197e-06
1.0225279e-05
1.136491e-05
1.2480476e-05
1.3570749e-05
1.4620781e-05
1.5615743e-05
1.6541507e-05
1.7376075e-05
1.8092462e-05
1.8668632e-05
1.910404e-05
1.9410135e-05
1.9612812e-05
1.9728427e-05
4.5078798e-06
5.5255897e-06
7.2725671e-06
9.0338425e-06
1.0689994e-05
1.2280041e-05
1.3834605e-05
1.5372034e-05
1.6877212e-05
1.8348231e-05
1.9764822e-05
2.1106834e-05
2.2355165e-05
2.3480252e-05
2.4445756e-05
2.5222137e-05
2.5808789e-05
2.6221186e-05
2.649424e-05
2.6649986e-05
5.8544171e-06
7.1289572e-06
9.4010025e-06
1.1661083e-05
1.3782154e-05
1.5820734e-05
1.7815116e-05
1.9788006e-05
2.171988e-05
2.3607956e-05
2.5426129e-05
2.7148405e-05
2.8750248e-05
3.0193871e-05
3.1432645e-05
3.2428782e-05
3.3181565e-05
3.3710801e-05
3.4061239e-05
3.4261102e-05
7.3297636e-06
8.903925e-06
1.1772141e-05
1.4577122e-05
1.7204044e-05
1.9732256e-05
2.2207667e-05
2.4657282e-05
2.7056789e-05
2.9402425e-05
3.1661812e-05
3.3802604e-05
3.5794329e-05
3.7590097e-05
3.9131636e-05
4.0371753e-05
4.1309317e-05
4.1968683e-05
4.2405381e-05
4.2654404e-05
8.9185235e-06
1.0911475e-05
1.441862e-05
1.7818346e-05
2.0995104e-05
2.4057795e-05
2.7059717e-05
3.0032168e-05
3.2945859e-05
3.579613e-05
3.8543933e-05
4.114992e-05
4.3576783e-05
4.5767013e-05
4.7648526e-05
4.9162995e-05
5.0308493e-05
5.1114312e-05
5.1648054e-05
5.1952279e-05
1.0628027e-05
1.3193007e-05
1.7378442e-05
2.142715e-05
2.520146e-05
2.8848359e-05
3.2428254e-05
3.5976921e-05
3.9460127e-05
4.2872365e-05
4.6167e-05
4.9296051e-05
5.2213241e-05
5.4847732e-05
5.7110749e-05
5.8931437e-05
6.0307729e-05
6.1275278e-05
6.1915725e-05
6.2280309e-05
1.2461455e-05
1.5778534e-05
2.0696339e-05
2.5453698e-05
2.9878325e-05
3.4166213e-05
3.8384605e-05
4.257397e-05
4.6694681e-05
5.0739145e-05
5.4650056e-05
5.8366906e-05
6.1830803e-05
6.4954801e-05
6.7632075e-05
6.9780544e-05
7.1400973e-05
7.253804e-05
7.3289544e-05
7.3716396e-05
1.4417297e-05
1.8699997e-05
2.4425582e-05
2.9958497e-05
3.5093838e-05
4.0090296e-05
4.5021223e-05
4.9930576e-05
5.4770111e-05
5.9525288e-05
6.4121995e-05
6.8482795e-05
7.2534763e-05
7.6175958e-05
7.9283824e-05
8.1768663e-05
8.3637431e-05
8.494587e-05
8.5809094e-05
8.6298014e-05
1.6488923e-05
2.1984756e-05
2.8630426e-05
3.5016301e-05
4.0934949e-05
4.6723547e-05
5.2458095e-05
5.8179839e-05
6.3823436e-05
6.9360174e-05
7.4695593e-05
7.9737099e-05
8.4401992e-05
8.8577212e-05
9.2126523e-05
9.495449e-05
9.7075786e-05
9.855804e-05
9.9534239e-05
0.00010008534
1.8664467e-05
2.5643038e-05
3.3389406e-05
4.0721774e-05
4.7515146e-05
5.4199208e-05
6.084175e-05
6.7467877e-05
7.3986618e-05
8.0355423e-05
8.6465315e-05
9.2215424e-05
9.7517194e-05
0.00010224728
0.00010625449
0.00010943745
0.00011181934
0.00011348044
0.00011457246
0.00011518659
2.092703e-05
2.9736226e-05
3.879911e-05
4.7196268e-05
5.4980356e-05
6.2677734e-05
7.0329045e-05
7.7932446e-05
8.5376428e-05
9.2615871e-05
9.9535178e-05
0.00010602837
0.00011200032
0.00011731497
0.00012180324
0.00012535735
0.00012801034
0.00012985655
0.00013106777
0.00013174589
2.3254939e-05
3.4323583e-05
4.4975888e-05
5.4590305e-05
6.3502073e-05
7.2325285e-05
8.1063908e-05
8.9697416e-05
9.811044e-05
0.00010626477
0.00011403956
0.00012132191
0.00012800695
0.00013394256
0.00013893869
0.00014288143
0.00014581604
0.00014785307
0.0001491862
0.0001499286
2.5621707e-05
3.9444817e-05
5.2046413e-05
6.3066396e-05
7.3245201e-05
8.3284036e-05
9.3172081e-05
0.0001028891
0.00011232688
0.00012145537
0.00013014507
0.00013827279
0.0001457205
0.00015231692
0.00015784839
0.00016219609
0.00016542088
0.00016765245
0.00016910853
0.00016991424
2.7995546e-05
4.5095534e-05
6.0106114e-05
7.2746873e-05
8.4324843e-05
9.5663697e-05
0.0001067763
0.00011765191
0.00012819119
0.00013836996
0.00014804601
0.00015708306
0.00016534721
0.00017264545
0.00017873828
0.00018350418
0.00018702419
0.00018945084
0.00019102841
0.00019189468
3.0338629e-05
5.1197705e-05
6.9133507e-05
8.3653341e-05
9.6793178e-05
0.00010955645
0.00012200954
0.0001341521
0.00014589401
0.00015721613
0.00016796098
0.00017797784
0.00018711506
0.00019515582
0.00020183296
0.00020702566
0.00021084102
0.00021345902
0.00021515325
0.00021607499
3.2606308e-05
5.7605535e-05
7.894137e-05
9.5700385e-05
0.00011065973
0.00012504966
0.0001390164
0.00015257437
0.00016564733
0.00017822416
0.00019013184
0.00020120551
0.00021127487
0.00022009766
0.00022737773
0.00023299972
0.00023710419
0.0002399043
0.00024170616
0.00024267536
3.4746431e-05
6.4158739e-05
8.9276876e-05
0.00010874801
0.00012590989
0.0001422248
0.0001579464
0.00017311547
0.00018768031
0.00020164509
0.00021482358
0.00022703892
0.0002381023
0.00024774507
0.00025564121
0.00026168731
0.00026606674
0.00026903288
0.00027092808
0.0002719331
3.6698807e-05
7.0716088e-05
9.9932648e-05
0.00012264801
0.00014250655
0.00016114624
0.00017894239
0.00019597579
0.00021223417
0.0002277484
0.00024232401
0.00025577647
0.00026789994
0.00027839906
0.00028691796
0.00029337368
0.00029800422
0.00030111194
0.00030307975
0.00030410458
3.8394986e-05
7.7148726e-05
0.00011075693
0.00013725645
0.00016038265
0.00018184582
0.00020212568
0.00022134787
0.00023955461
0.00025681772
0.00027294211
0.00028774233
0.00030099855
0.00031238956
0.00032153061
0.00032837051
0.0003332167
0.00033643146
0.00033844337
0.00033946677
3.9758652e-05
8.332528e-05
0.00012162333
0.00015243043
0.00017943461
0.00020430744
0.00022757847
0.00024940141
0.0002698807
0.00028914366
0.000307004
0.0003232847
0.00033775711
0.00035007634
0.00035983135
0.00036701748
0.00037203022
0.0003753055
0.0003773238
0.00037831834
4.070712e-05
8.9101383e-05
0.00013240333
0.00016802158
0.0001995214
0.00022845626
0.00025532587
0.00028026456
0.00030342933
0.00032501227
0.00034484535
0.00036277151
0.00037856073
0.00039184854
0.00040220225
0.00040968291
0.00041479754
0.00041807297
0.00042004918
0.00042098027
4.1154746e-05
9.4312248e-05
0.00014294734
0.00018386867
0.00022046869
0.00025415558
0.00028532089
0.00031400325
0.00034037493
0.00036468854
0.00038679927
0.00040658227
0.0004238158
0.00043812202
0.00044905407
0.00045676335
0.00046189799
0.00046509747
0.00046697087
0.00046779586
4.1019716e-05
9.876641e-05
0.00015307168
0.00019978767
0.00024207369
0.00028121205
0.00031743671
0.00035060173
0.00038082598
0.00040839442
0.00043317865
0.00045509521
0.00047394123
0.00048933385
0.00050082281
0.00050868141
0.00051373598
0.00051676624
0.00051846254
0.00051912986
4.0236909e-05
0.00010224002
0.00016254873
0.00021555921
0.00026410557
0.0003093851
0.00035146854
0.00038994938
0.00042480134
0.0004562826
0.00048425258
0.0005086685
0.00052935479
0.00054593281
0.00055796344
0.00056588142
0.00057073787
0.00057348761
0.00057491803
0.00057536671
3.878206e-05
0.00010447174
0.00017109785
0.00023091461
0.00028629866
0.00033839441
0.0003871435
0.00043183756
0.00047221154
0.00050840898
0.00054021777
0.00056761533
0.0005904534
0.00060836502
0.0006209396
0.00062882218
0.00063334654
0.00063568678
0.0006367478
0.00063690746
3.6654803e-05
0.0001051806
0.00017837552
0.0002455214
0.00030833886
0.0003679192
0.00042413204
0.00047596717
0.00052285016
0.00056470887
0.00060116762
0.00063217332
0.00065758718
0.00067705356
0.00069020864
0.00069796598
0.00070201316
0.00070379927
0.00070437358
0.00070416514
3.3895959e-05
0.00010407552
0.00018396434
0.00025896804
0.00032984519
0.00039758722
0.00046205306
0.00052196164
0.00057639758
0.00062498292
0.00066706407
0.000702471
0.00073102751
0.00075237194
0.00076620101
0.00077376308
0.00077718545
0.00077826173
0.00077822077
0.00077755829
3.0636345e-05
0.00010086354
0.00018736094
0.00027074742
0.00035034804
0.000426955
0.00050046719
0.00056937655
0.00063243347
0.00068889614
0.00073771824
0.00077849603
0.00081093179
0.00083461177
0.00084929385
0.00085663136
0.00085929194
0.0008594995
0.00085870825
0.0008575023
2.711447e-05
9.5278402e-05
0.0001879651
0.00028023704
0.00036926513
0.00045548269
0.00053885752
0.00061769773
0.00069044936
0.00075598835
0.00081278444
0.00086007132
0.00089730918
0.00092394705
0.00093977947
0.00094693071
0.00094872196
0.00094791072
0.00094623538
0.00094439831
2.3658256e-05
8.7120805e-05
0.00018507472
0.00028667484
0.00038587394
0.00048250548
0.00057660096
0.00066632407
0.00074985099
0.00082568791
0.00089176728
0.00094684412
0.00098999325
0.001020399
0.0010378307
0.0010449333
0.0010458015
0.0010438469
0.001041166
0.0010386196
2.0607865e-05
7.6321436e-05
0.00017789994
0.00028913173
0.00039927922
0.00050719948
0.00061293365
0.00071453683
0.00080994406
0.00089731737
0.00097403461
0.0010382888
0.0010886266
0.0011238064
0.0011434664
0.0011507914
0.0011507659
0.0011475902
0.0011438095
0.0011404955
1.8196364e-05
6.3114882e-05
0.00016563006
0.00028648359
0.00040837236
0.00052854033
0.00064691169
0.00076145962
0.00086990268
0.00097008207
0.0010588249
0.0011337174
0.0011926585
0.0012338071
0.0012565219
0.0012645052
0.0012637302
0.0012593286
0.0012543999
0.0012502929
1.6461635e-05
4.8650688e-05
0.0001476237
0.00027739073
0.00041177849
0.00054525207
0.00067736559
0.00080601188
0.00092872455
0.0010430387
0.0011452378
0.0012322865
0.0013013518
0.0013498301
0.0013766273
0.0013858941
0.0013846609
0.0013791294
0.0013730724
0.0013681961
1.5265071e-05
3.6266083e-05
0.00012373682
0.0002603124
0.00040779633
0.00055574277
0.00070284215
0.00084685513
0.000985177
0.0011150465
0.0012322035
0.0013329889
0.0014137862
0.0014710962
0.0015031954
0.0015145748
0.001513349
0.0015069138
0.0014998403
0.0014942856
1.4408037e-05
2.7821016e-05
9.545342e-05
0.00023373086
0.00039434842
0.00055802334
0.00072152656
0.00088232857
0.0010377347
0.0011847062
0.0013184301
0.0014346222
0.0015288496
0.001596617
0.0016354145
0.0016499437
0.0016493872
0.0016424319
0.0016345713
0.0016285165
1.3741219e-05
2.3047831e-05
6.5873695e-05
0.0001966473
0.0003689754
0.00054960506
0.00073114098
0.00091036626
0.0010845058
0.0012502885
0.0014023363
0.0015357346
0.0016452053
0.0017251815
0.0017722407
0.0017911643
0.0017921504
0.0017852406
0.0017769648
0.0017706963
1.3191477e-05
2.0626194e-05
4.3905861e-05
0.00014978298
0.00032898105
0.00052739127
0.00072881676
0.00092838188
0.0011231394
0.0013096505
0.0014819698
0.0016345507
0.0017612353
0.0018553209
0.0019123775
0.0019371495
0.0019407758
0.001934681
0.0019265289
0.0019204634
1.2735474e-05
1.9987774e-05
3.2412787e-05
9.9097063e-05
0.00027242164
0.00048763886
0.00071092972
0.00093311003
0.0011507063
0.0013601324
0.0015549132
0.0017288814
0.0018749606
0.001985249
0.002054236
0.0020865348
0.0020941386
0.0020898544
0.0020825568
0.0020772638
1.2358559e-05
1.8831676e-05
2.7372299e-05
5.9190102e-05
0.00019994932
0.00042613113
0.00067291024
0.00092040706
0.0011635267
0.0013984252
0.0016181685
0.0018160183
0.0019839433
0.0021127778
0.0021958722
0.0022376322
0.0022508169
0.0022495912
0.0022440981
0.0022403251
1.2039374e-05
1.7266135e-05
2.5418161e-05
3.9668119e-05
0.00012147334
0.00033993259
0.00060914854
0.00088499233
0.0011569301
0.0014203917
0.0016680105
0.0018926072
0.0020851707
0.0022352124
0.0023348987
0.0023883632
0.0024090399
0.0024124097
0.0024099234
0.0024086254
1.1761715e-05
1.6052072e-05
2.3238798e-05
3.1956383e-05
6.4931099e-05
0.00023077737
0.00051343371
0.000820155
0.0011249475
0.0014208069
0.0016997934
0.0019544882
0.0021749159
0.0023492258
0.0024683752
0.0025361688
0.0025666172
0.0025764589
0.0025784777
0.0025808535
1.1518879e-05
1.5212658e-05
2.0722595e-05
2.8964033e-05
4.1775006e-05
0.00011975223
0.00038249421
0.00071760157
0.0010598936
0.0013929927
0.0017076837
0.0019964882
0.0022485667
0.0024507086
0.0025926761
0.0026778971
0.0027208467
0.0027394449
0.0027478194
0.0027553583
1.1305739e-05
1.4452207e-05
1.8819894e-05
2.5757706e-05
3.3370017e-05
5.8314656e-05
0.0002248289
0.00056911376
0.0009519142
0.0013283359
0.0016842625
0.0020121433
0.0023004035
0.0025345844
0.002703333
0.0028096679
0.0028684017
0.0028985373
0.0029155441
0.0029300848
1.111704e-05
1.3748036e-05
1.73949e-05
2.2443608e-05
2.9871307e-05
3.9232096e-05
9.4639183e-05
0.00037301854
0.00078944078
0.0012156774
0.0016199779
0.00199329
0.0023233073
0.0025945765
0.0027948425
0.0029267122
0.0030051948
0.0030502558
0.0030786895
0.0031024948
1.0948544e-05
1.3148878e-05
1.611164e-05
2.0050459e-05
2.5698498e-05
3.2493025e-05
4.6280104e-05
0.00016505132
0.00056384264
0.0010410841
0.001502406
0.0019294633
0.0023083567
0.0026229028
0.0028604274
0.0030231777
0.0031262173
0.0031903355
0.0032336232
0.0032694602
1.0796888e-05
1.2622679e-05
1.4995044e-05
1.8117433e-05
2.2137186e-05
2.7953345e-05
3.3936401e-05
5.8986396e-05
0.00029018425
0.00078927438
0.0013156953
0.0018070848
0.0022442225
0.0026098699
0.0028917329
0.0030918918
0.0032253464
0.0033135677
0.0033759076
0.0034271308
1.065911e-05
1.214921e-05
1.403676e-05
1.6425788e-05
1.948155e-05
2.3353464e-05
2.8695444e-05
3.442937e-05
8.7690848e-05
0.00045856726
0.0010400915
0.0016087929
0.0021163807
0.0025432577
0.0028784348
0.0031240671
0.0032951144
0.0034136114
0.0035001224
0.0035708257
1.0532518e-05
1.1721725e-05
1.3187668e-05
1.4988432e-05
1.7209948e-05
1.9935677e-05
2.3410642e-05
2.7632386e-05
3.345104e-05
0.00014437875
0.00066179462
0.0013123385
0.001906131
0.0024076622
0.0028076946
0.0031089225
0.0033264226
0.0034827443
0.0035996849
0.0036949083
1.0414642e-05
1.1328995e-05
1.2426118e-05
1.3734143e-05
1.5282953e-05
1.7137019e-05
1.9281878e-05
2.2137942e-05
2.4373689e-05
3.321186e-05
0.00024178427
0.00089763816
0.0015891248
0.0021834323
0.0026635094
0.003033228
0.0033082015
0.0035116103
0.0036666448
0.0037925752
1.030293e-05
1.0962604e-05
1.1730856e-05
1.2614073e-05
1.3617047e-05
1.4737242e-05
1.6024067e-05
1.731171e-05
1.9465612e-05
1.863017e-05
4.0015655e-05
0.00039178973
0.0011370844
0.0018449272
0.0024257798
0.0028807298
0.0032270009
0.0034889251
0.0036914198
0.0038556186
1.0194364e-05
1.0610356e-05
1.1070419e-05
1.1565991e-05
1.2084944e-05
1.2617934e-05
1.3151955e-05
1.3702582e-05
1.4174791e-05
1.5083108e-05
1.3997299e-05
6.2938664e-05
0.00055893359
0.0013606985
0.0020687185
0.0026313197
0.0030664806
0.0034010722
0.0036624945
0.0038741771
1.0073613e-05
1.0223538e-05
1.0379459e-05
1.0535327e-05
1.0681778e-05
1.0813552e-05
1.0927918e-05
1.1033169e-05
1.1122454e-05
1.1250927e-05
1.1198483e-05
1.2061973e-05
0.00010298019
0.0007274533
0.0015602437
0.0022596907
0.0028067245
0.00323165
0.003566048
0.0038364378
1.0004835e-05
1.0021069e-05
1.0047444e-05
1.0081676e-05
1.0117587e-05
1.0149793e-05
1.0177203e-05
1.0200362e-05
1.0220362e-05
1.0238181e-05
1.0272006e-05
1.0175445e-05
1.3077345e-05
0.00016078366
0.0008900828
0.0017345336
0.0024231097
0.0029608682
0.003385525
0.0037282903
1.0001141e-05
1.0004485e-05
1.0008637e-05
1.0011967e-05
1.0014554e-05
1.0017115e-05
1.0019843e-05
1.0022553e-05
1.0025663e-05
1.0029029e-05
1.0033427e-05
1.0036749e-05
1.0066601e-05
1.6349639e-05
0.00023417352
0.0010420688
0.0018855215
0.0025645015
0.0031010581
0.0035329201
1.0000966e-05
1.0002972e-05
1.0005275e-05
1.0007839e-05
1.0010659e-05
1.0013856e-05
1.0017553e-05
1.0021757e-05
1.0026645e-05
1.0032078e-05
1.0038469e-05
1.0045585e-05
1.0052367e-05
1.0119792e-05
2.2271797e-05
0.00031864956
0.0011768496
0.0020128101
0.0026884335
0.003230263
1.0000917e-05
1.0002875e-05
1.0005057e-05
1.0007548e-05
1.0010258e-05
1.0013347e-05
1.0016801e-05
1.0020732e-05
1.0025105e-05
1.0030085e-05
1.0035665e-05
1.0041891e-05
1.0049316e-05
1.0055829e-05
1.0185264e-05
3.1096232e-05
0.00040043534
0.0012817811
0.002117542
0.0027960015
1.0000872e-05
1.0002732e-05
1.0004803e-05
1.0007196e-05
1.000974e-05
1.0012662e-05
1.0015984e-05
1.0019722e-05
1.0023947e-05
1.00287e-05
1.0034049e-05
1.0040105e-05
1.0046873e-05
1.0054869e-05
1.0062283e-05
1.031087e-05
4.1779764e-05
0.00046202802
0.0013610279
0.0021995383
1.0000828e-05
1.0002596e-05
1.0004568e-05
1.0006824e-05
1.0009292e-05
1.0012101e-05
1.0015261e-05
1.0018824e-05
1.0022832e-05
1.0027352e-05
1.0032439e-05
1.0038181e-05
1.0044676e-05
1.0051977e-05
1.006045e-05
1.0069353e-05
1.0467787e-05
5.0626369e-05
0.00050259072
0.0014112651
1.0000784e-05
1.0002449e-05
1.0004333e-05
1.0006441e-05
1.0008809e-05
1.0011474e-05
1.0014472e-05
1.0017837e-05
1.0021641e-05
1.002591e-05
1.0030743e-05
1.0036172e-05
1.0042313e-05
1.0049304e-05
1.0057109e-05
1.006612e-05
1.0076594e-05
1.0577884e-05
5.7002469e-05
0.00051631781
1.0000739e-05
1.0002311e-05
1.0004087e-05
1.0006075e-05
1.0008309e-05
1.0010831e-05
1.001365e-05
1.0016841e-05
1.0020414e-05
1.0024469e-05
1.0029007e-05
1.0034155e-05
1.0039962e-05
1.0046488e-05
1.0054056e-05
1.0062266e-05
1.007213e-05
1.0083073e-05
1.0665809e-05
6.2118485e-05
1.0000694e-05
1.000217e-05
1.000384e-05
1.0005706e-05
1.0007814e-05
1.0010174e-05
1.0012839e-05
1.0015824e-05
1.0019209e-05
1.0022997e-05
1.0027296e-05
1.0032118e-05
1.0037579e-05
1.004379e-05
1.0050704e-05
1.0058842e-05
1.0067528e-05
1.0078233e-05
1.0089272e-05
1.097266e-05
1.0000649e-05
1.0002032e-05
1.0003593e-05
1.0005346e-05
1.0007313e-05
1.0009534e-05
1.0012018e-05
1.0014831e-05
1.0017984e-05
1.0021558e-05
1.0025565e-05
1.0030105e-05
1.0035221e-05
1.0041016e-05
1.004757e-05
1.0055074e-05
1.0063304e-05
1.0073675e-05
1.0081876e-05
1.0105007e-05
1.0000605e-05
1.0001893e-05
1.0003351e-05
1.0004983e-05
1.0006824e-05
1.0008889e-05
1.0011217e-05
1.0013832e-05
1.0016789e-05
1.0020112e-05
1.0023869e-05
1.0028097e-05
1.0032881e-05
1.0038288e-05
1.0044429e-05
1.0051334e-05
1.0059325e-05
1.0068104e-05
1.0078715e-05
1.0088789e-05
1.0000562e-05
1.0001759e-05
1.0003111e-05
1.000463e-05
1.0006338e-05
1.0008261e-05
1.0010421e-05
1.0012858e-05
1.0015601e-05
1.0018698e-05
1.0022186e-05
1.0026123e-05
1.0030571e-05
1.0035604e-05
1.0041299e-05
1.0047757e-05
1.0055112e-05
1.006338e-05
1.0072978e-05
1.0083572e-05
1.000052e-05
1.0001627e-05
1.0002877e-05
1.0004283e-05
1.0005864e-05
1.0007642e-05
1.0009643e-05
1.0011897e-05
1.001444e-05
1.0017306e-05
1.0020538e-05
1.0024185e-05
1.0028304e-05
1.0032966e-05
1.0038237e-05
1.0044229e-05
1.0050994e-05
1.0058741e-05
1.0067442e-05
1.0077471e-05
1.0000479e-05
1.0001498e-05
1.0002649e-05
1.0003945e-05
1.0005401e-05
1.000704e-05
1.0008885e-05
1.0010964e-05
1.0013307e-05
1.0015951e-05
1.0018932e-05
1.0022295e-05
1.0026094e-05
1.0030392e-05
1.0035258e-05
1.0040767e-05
1.0047029e-05
1.0054123e-05
1.0062196e-05
1.0071349e-05
1.0000439e-05
1.0001374e-05
1.0002429e-05
1.0003617e-05
1.0004954e-05
1.0006457e-05
1.000815e-05
1.0010058e-05
1.0012209e-05
1.0014636e-05
1.0017373e-05
1.002046e-05
1.0023949e-05
1.0027895e-05
1.003236e-05
1.003742e-05
1.0043161e-05
1.0049669e-05
1.0057073e-05
1.0065456e-05
1.0000401e-05
1.0001254e-05
1.0002217e-05
1.0003302e-05
1.0004522e-05
1.0005896e-05
1.0007442e-05
1.0009185e-05
1.001115e-05
1.0013368e-05
1.0015869e-05
1.0018691e-05
1.0021879e-05
1.0025486e-05
1.0029565e-05
1.0034188e-05
1.0039429e-05
1.0045376e-05
1.0052126e-05
1.0059784e-05
1.0000364e-05
1.0001139e-05
1.0002014e-05
1.0003e-05
1.0004109e-05
1.0005357e-05
1.0006763e-05
1.0008348e-05
1.0010135e-05
1.0012151e-05
1.0014426e-05
1.0016993e-05
1.0019893e-05
1.0023173e-05
1.0026883e-05
1.0031085e-05
1.003585e-05
1.0041253e-05
1.0047386e-05
1.0054338e-05
1.0000329e-05
1.000103e-05
1.0001821e-05
1.0002712e-05
1.0003715e-05
1.0004844e-05
1.0006116e-05
1.000755e-05
1.0009167e-05
1.0010991e-05
1.001305e-05
1.0015373e-05
1.0017997e-05
1.0020966e-05
1.0024323e-05
1.0028125e-05
1.0032436e-05
1.0037321e-05
1.0042865e-05
1.0049146e-05
1.0000296e-05
1.0000926e-05
1.0001638e-05
1.000244e-05
1.0003343e-05
1.0004358e-05
1.0005503e-05
1.0006793e-05
1.0008249e-05
1.0009891e-05
1.0011745e-05
1.0013836e-05
1.0016199e-05
1.0018872e-05
1.0021895e-05
1.0025317e-05
1.0029196e-05
1.0033592e-05
1.0038578e-05
1.0044225e-05
1.0000265e-05
1.0000829e-05
1.0001465e-05
1.0002183e-05
1.0002991e-05
1.0003901e-05
1.0004926e-05
1.0006081e-05
1.0007384e-05
1.0008855e-05
1.0010514e-05
1.0012388e-05
1.0014504e-05
1.0016898e-05
1.0019605e-05
1.0022669e-05
1.0026142e-05
1.0030075e-05
1.0034536e-05
1.0039587e-05
1.0000236e-05
1.0000738e-05
1.0001304e-05
1.0001943e-05
1.0002662e-05
1.0003472e-05
1.0004385e-05
1.0005413e-05
1.0006574e-05
1.0007883e-05
1.0009361e-05
1.001103e-05
1.0012915e-05
1.0015047e-05
1.0017458e-05
1.0020187e-05
1.0023278e-05
1.002678e-05
1.0030749e-05
1.0035241e-05
1.0000209e-05
1.0000653e-05
1.0001154e-05
1.000172e-05
1.0002356e-05
1.0003073e-05
1.0003881e-05
1.0004792e-05
1.0005819e-05
1.0006979e-05
1.0008288e-05
1.0009765e-05
1.0011434e-05
1.0013322e-05
1.0015457e-05
1.0017874e-05
1.002061e-05
1.002371e-05
1.0027221e-05
1.0031195e-05
1.0000184e-05
1.0000574e-05
1.0001015e-05
1.0001513e-05
1.0002073e-05
1.0002704e-05
1.0003415e-05
1.0004217e-05
1.0005121e-05
1.0006141e-05
1.0007293e-05
1.0008594e-05
1.0010063e-05
1.0011725e-05
1.0013604e-05
1.0015731e-05
1.001814e-05
1.0020867e-05
1.0023955e-05
1.0027449e-05
1.0000161e-05
1.0000502e-05
1.0000888e-05
1.0001323e-05
1.0001813e-05
1.0002365e-05
1.0002987e-05
1.0003688e-05
1.0004479e-05
1.0005371e-05
1.0006378e-05
1.0007516e-05
1.0008801e-05
1.0010255e-05
1.0011899e-05
1.0013759e-05
1.0015866e-05
1.001825e-05
1.002095e-05
1.0024004e-05
1.0000139e-05
1.0000436e-05
1.0000771e-05
1.0001149e-05
1.0001575e-05
1.0002054e-05
1.0002595e-05
1.0003204e-05
1.0003891e-05
1.0004666e-05
1.0005542e-05
1.000653e-05
1.0007647e-05
1.000891e-05
1.0010339e-05
1.0011955e-05
1.0013786e-05
1.0015857e-05
1.0018202e-05
1.0020853e-05
1.000012e-05
1.0000376e-05
1.0000665e-05
1.0000991e-05
1.0001359e-05
1.0001773e-05
1.0002239e-05
1.0002765e-05
1.0003358e-05
1.0004026e-05
1.0004782e-05
1.0005634e-05
1.0006598e-05
1.0007688e-05
1.0008921e-05
1.0010316e-05
1.0011895e-05
1.0013683e-05
1.0015706e-05
1.001799e-05
1.0000103e-05
1.0000322e-05
1.000057e-05
1.0000849e-05
1.0001164e-05
1.0001518e-05
1.0001918e-05
1.0002368e-05
1.0002876e-05
1.0003449e-05
1.0004096e-05
1.0004826e-05
1.0005651e-05
1.0006585e-05
1.0007641e-05
1.0008836e-05
1.0010188e-05
1.0011719e-05
1.0013451e-05
1.0015407e-05
1.0000088e-05
1.0000274e-05
1.0000484e-05
1.0000721e-05
1.0000989e-05
1.000129e-05
1.000163e-05
1.0002012e-05
1.0002444e-05
1.0002931e-05
1.000348e-05
1.0004101e-05
1.0004802e-05
1.0005595e-05
1.0006492e-05
1.0007508e-05
1.0008657e-05
1.0009958e-05
1.0011429e-05
1.001309e-05
1.0000074e-05
1.0000231e-05
1.0000408e-05
1.0000608e-05
1.0000833e-05
1.0001087e-05
1.0001373e-05
1.0001696e-05
1.0002059e-05
1.0002469e-05
1.0002932e-05
1.0003455e-05
1.0004046e-05
1.0004714e-05
1.000547e-05
1.0006325e-05
1.0007294e-05
1.000839e-05
1.0009629e-05
1.0011027e-05
1.0000062e-05
1.0000193e-05
1.000034e-05
1.0000507e-05
1.0000695e-05
1.0000907e-05
1.0001146e-05
1.0001416e-05
1.0001719e-05
1.0002062e-05
1.0002448e-05
1.0002884e-05
1.0003377e-05
1.0003935e-05
1.0004565e-05
1.000528e-05
1.0006088e-05
1.0007003e-05
1.0008038e-05
1.0009203e-05
1.0000051e-05
1.0000159e-05
1.0000281e-05
1.0000419e-05
1.0000575e-05
1.000075e-05
1.0000947e-05
1.000117e-05
1.0001421e-05
1.0001704e-05
1.0002023e-05
1.0002383e-05
1.000279e-05
1.0003251e-05
1.0003772e-05
1.0004362e-05
1.0005031e-05
1.0005787e-05
1.0006641e-05
1.0007603e-05
1.0000042e-05
1.000013e-05
1.000023e-05
1.0000343e-05
1.000047e-05
1.0000613e-05
1.0000774e-05
1.0000956e-05
1.0001161e-05
1.0001392e-05
1.0001653e-05
1.0001947e-05
1.000228e-05
1.0002656e-05
1.0003081e-05
1.0003564e-05
1.000411e-05
1.0004728e-05
1.0005426e-05
1.0006212e-05
1.0000034e-05
1.0000105e-05
1.0000185e-05
1.0000276e-05
1.0000379e-05
1.0000494e-05
1.0000625e-05
1.0000771e-05
1.0000937e-05
1.0001123e-05
1.0001334e-05
1.0001571e-05
1.0001839e-05
1.0002143e-05
1.0002486e-05
1.0002875e-05
1.0003315e-05
1.0003814e-05
1.0004378e-05
1.0005014e-05
1.0000027e-05
1.0000083e-05
1.0000147e-05
1.000022e-05
1.0000301e-05
1.0000393e-05
1.0000497e-05
1.0000613e-05
1.0000745e-05
1.0000893e-05
1.0001061e-05
1.0001249e-05
1.0001463e-05
1.0001703e-05
1.0001976e-05
1.0002285e-05
1.0002636e-05
1.0003032e-05
1.0003482e-05
1.0003989e-05
1.0000021e-05
1.0000065e-05
1.0000115e-05
1.0000172e-05
1.0000235e-05
1.0000307e-05
1.0000388e-05
1.000048e-05
1.0000582e-05
1.0000699e-05
1.0000829e-05
1.0000977e-05
1.0001143e-05
1.0001331e-05
1.0001544e-05
1.0001786e-05
1.000206e-05
1.000237e-05
1.0002722e-05
1.0003118e-05
1.0000016e-05
1.000005e-05
1.0000088e-05
1.0000131e-05
1.000018e-05
1.0000235e-05
1.0000297e-05
1.0000367e-05
1.0000446e-05
1.0000535e-05
1.0000635e-05
1.0000748e-05
1.0000875e-05
1.0001019e-05
1.0001181e-05
1.0001366e-05
1.0001576e-05
1.0001814e-05
1.0002083e-05
1.0002386e-05
1.0000012e-05
1.0000037e-05
1.0000066e-05
1.0000098e-05
1.0000134e-05
1.0000175e-05
1.0000221e-05
1.0000273e-05
1.0000332e-05
1.0000398e-05
1.0000473e-05
1.0000556e-05
1.0000651e-05
1.0000758e-05
1.0000878e-05
1.0001016e-05
1.0001172e-05
1.0001349e-05
1.0001549e-05
1.0001775e-05
1.0000008e-05
1.0000027e-05
1.0000047e-05
1.000007e-05
1.0000096e-05
1.0000125e-05
1.0000158e-05
1.0000195e-05
1.0000237e-05
1.0000284e-05
1.0000338e-05
1.0000398e-05
1.0000465e-05
1.0000541e-05
1.0000627e-05
1.0000725e-05
1.0000837e-05
1.0000963e-05
1.0001106e-05
1.0001267e-05
1.0000006e-05
1.0000018e-05
1.0000031e-05
1.0000047e-05
1.0000064e-05
1.0000084e-05
1.0000106e-05
1.000013e-05
1.0000158e-05
1.000019e-05
1.0000225e-05
1.0000265e-05
1.000031e-05
1.000036e-05
1.0000417e-05
1.0000483e-05
1.0000557e-05
1.0000641e-05
1.0000737e-05
1.0000844e-05
1.0000003e-05
1.000001e-05
1.0000018e-05
1.0000027e-05
1.0000037e-05
1.0000048e-05
1.0000061e-05
1.0000075e-05
1.0000091e-05
1.0000109e-05
1.0000129e-05
1.0000152e-05
1.0000178e-05
1.0000206e-05
1.0000237e-05
1.0000274e-05
1.0000316e-05
1.0000365e-05
1.0000419e-05
1.0000481e-05
1.0000001e-05
1.0000003e-05
1.0000006e-05
1.0000009e-05
1.0000012e-05
1.0000016e-05
1.000002e-05
1.0000025e-05
1.0000031e-05
1.0000037e-05
1.0000044e-05
1.0000052e-05
1.000006e-05
1.000007e-05
1.0000079e-05
1.0000092e-05
1.0000107e-05
1.0000124e-05
1.0000143e-05
1.0000164e-05
2.4888717e-06
2.4906198e-06
2.4907083e-06
2.4896721e-06
2.4878415e-06
2.485601e-06
2.4831956e-06
2.4807675e-06
2.4784047e-06
2.476159e-06
2.4740607e-06
2.4721182e-06
2.4703428e-06
2.4687335e-06
2.4672745e-06
2.4659644e-06
2.4648103e-06
2.4637919e-06
2.4628873e-06
2.4620936e-06
2.4614124e-06
2.4608271e-06
2.460325e-06
2.4599049e-06
2.4595583e-06
2.4592713e-06
2.4590399e-06
2.4588597e-06
2.4587233e-06
2.4586209e-06
2.4585561e-06
2.4585179e-06
2.4585019e-06
2.4584988e-06
2.4585107e-06
2.4585391e-06
2.4585698e-06
2.4585986e-06
2.4586277e-06
2.4586526e-06
2.4586752e-06
2.4586882e-06
2.4586873e-06
2.458677e-06
2.4586506e-06
2.4586078e-06
2.4585456e-06
2.4584634e-06
2.458368e-06
2.4582561e-06
2.4581193e-06
2.4579588e-06
2.4577752e-06
2.4575606e-06
2.457313e-06
2.4570278e-06
2.4567194e-06
2.4563762e-06
2.4559919e-06
2.4555735e-06
2.4551098e-06
2.4546068e-06
2.4540524e-06
2.4534445e-06
2.4527974e-06
2.4520996e-06
2.4513438e-06
2.4505304e-06
2.4496534e-06
2.4487145e-06
2.4477174e-06
2.4466527e-06
2.4455178e-06
2.4443107e-06
2.4430299e-06
2.4416724e-06
2.4402344e-06
2.4387147e-06
2.4371092e-06
2.4354159e-06
2.433632e-06
2.4317539e-06
2.4297794e-06
2.4277049e-06
2.4255274e-06
2.4232439e-06
2.4208506e-06
2.4183443e-06
2.4157216e-06
2.4129788e-06
2.4101133e-06
2.407121e-06
2.4039973e-06
2.4007394e-06
2.3973423e-06
2.3938031e-06
2.3901171e-06
2.3862807e-06
2.382289e-06
2.3781364e-06
2.3738195e-06
2.3693336e-06
2.364674e-06
2.3598349e-06
2.3548101e-06
2.3495951e-06
2.3441854e-06
2.3385742e-06
2.3327555e-06
2.326724e-06
2.3204724e-06
2.3139939e-06
2.3072814e-06
2.3003299e-06
2.293131e-06
2.2856775e-06
2.2779606e-06
2.2699726e-06
2.261704e-06
2.2531484e-06
2.244295e-06
2.2351351e-06
2.2256576e-06
2.2158522e-06
2.2057096e-06
2.1952172e-06
2.1843628e-06
2.173134e-06
2.1615185e-06
2.1495016e-06
2.1370697e-06
2.1242064e-06
2.1108965e-06
2.0971223e-06
2.082865e-06
2.0681067e-06
2.0528269e-06
2.0370045e-06
2.0206131e-06
2.0036325e-06
1.9860304e-06
1.9677829e-06
1.9488559e-06
1.9292204e-06
1.9088344e-06
1.8876635e-06
1.8656614e-06
1.8427866e-06
1.8189828e-06
1.794196e-06
1.7683666e-06
1.7414243e-06
1.7132959e-06
1.6838889e-06
1.6531276e-06
1.6208675e-06
1.5870643e-06
1.5514135e-06
1.5140727e-06
1.4741387e-06
7.7155053e-06
7.7210195e-06
7.7214801e-06
7.7185366e-06
7.7132011e-06
7.7066582e-06
7.6996574e-06
7.6926664e-06
7.6859438e-06
7.6796224e-06
7.6737946e-06
7.6684744e-06
7.6636942e-06
7.6594521e-06
7.6556886e-06
7.6523974e-06
7.6496052e-06
7.6472418e-06
7.6452301e-06
7.6435637e-06
7.6422528e-06
7.6412383e-06
7.6404717e-06
7.6399582e-06
7.6396685e-06
7.6395552e-06
7.6396056e-06
7.6398078e-06
7.6401359e-06
7.6405571e-06
7.6410867e-06
7.6416866e-06