/*--------------------------------*- C++ -*----------------------------------*\
| =========                 |                                                 |
| \\      /  F ield         | OpenFOAM: The Open Source CFD Toolbox           |
|  \\    /   O peration     | Version:  2406                                  |
|   \\  /    A nd           | Website:  www.openfoam.com                      |
|    \\/     M anipulation  |                                                 |
\*---------------------------------------------------------------------------*/
FoamFile
{
    version     2.0;
    format      ascii;
    arch        "LSB;label=32;scalar=64";
    class       volScalarField;
    location    "2406";
    object      p;
}
// * * * * * * * * * * * * * * * * * * * * * * * * * * * * * * * * * * * * * //

dimensions      [0 2 -2 0 0 0 0];

internalField   nonuniform List<scalar> 
69120
(
21.457808
22.075816
23.682145
25.678494
27.462042
29.001935
30.360974
31.500441
32.437852
33.193871
33.767048
34.213148
34.462582
34.537764
34.429603
34.149558
33.767044
33.339952
32.89734
32.448132
21.457812
22.075803
23.682122
25.678468
27.462017
29.00191
30.36095
31.500417
32.437829
33.19385
33.767029
34.213131
34.462567
34.537752
34.429593
34.149551
33.76704
33.339949
32.897338
32.448131
21.457815
22.075787
23.682094
25.678436
27.461985
29.001879
30.360919
31.500388
32.437801
33.193824
33.767005
34.213109
34.462549
34.537737
34.429582
34.149542
33.767034
33.339945
32.897336
32.44813
21.457819
22.07577
23.682065
25.678403
27.461952
29.001846
30.360887
31.500357
32.437772
33.193796
33.76698
34.213087
34.46253
34.537721
34.429569
34.149534
33.767028
33.339942
32.897334
32.448129
21.457822
22.075751
23.682032
25.678367
27.461916
29.001811
30.360853
31.500323
32.43774
33.193766
33.766952
34.213062
34.462508
34.537703
34.429556
34.149524
33.767021
33.339938
32.897332
32.448128
21.457825
22.075732
23.681997
25.678327
27.461876
29.001772
30.360814
31.500286
32.437704
33.193732
33.766921
34.213034
34.462483
34.537682
34.429539
34.149512
33.767013
33.339933
32.897329
32.448126
21.457827
22.075712
23.681958
25.678284
27.461833
29.001729
30.360771
31.500243
32.437662
33.193692
33.766883
34.212999
34.462452
34.537655
34.429518
34.149496
33.767003
33.339926
32.897325
32.448124
21.457826
22.075688
23.681917
25.678235
27.461784
29.00168
30.360721
31.500193
32.437613
33.193643
33.766835
34.212954
34.46241
34.537619
34.429488
34.149474
33.766987
33.339916
32.89732
32.448122
21.457824
22.075658
23.681871
25.678181
27.461728
29.001622
30.360662
31.500132
32.437549
33.193578
33.76677
34.21289
34.46235
34.537566
34.429444
34.14944
33.766964
33.339901
32.897311
32.448117
21.457822
22.075623
23.681818
25.678118
27.461663
29.001553
30.360588
31.500052
32.437463
33.193487
33.766676
34.212796
34.462261
34.537485
34.429377
34.149389
33.766929
33.339879
32.897298
32.448111
21.457819
22.075582
23.681757
25.678045
27.461583
29.001465
30.360489
31.49994
32.43734
33.193353
33.766536
34.212655
34.462126
34.537364
34.429277
34.149314
33.766877
33.339846
32.89728
32.448102
21.457815
22.075537
23.681684
25.677956
27.461481
29.001346
30.360349
31.499777
32.437156
33.193153
33.766327
34.212447
34.461929
34.53719
34.429135
34.149208
33.766804
33.3398
32.897253
32.448089
21.45781
22.075487
23.681596
25.67784
27.46134
29.001175
30.360142
31.499535
32.436883
33.192858
33.766025
34.212152
34.461656
34.536953
34.428945
34.149068
33.766709
33.339741
32.89722
32.448072
21.457803
22.075431
23.681482
25.677679
27.461135
29.00092
30.359833
31.499176
32.436487
33.192443
33.765611
34.21176
34.461302
34.536652
34.428708
34.148896
33.766593
33.339668
32.897179
32.448052
21.457795
22.075367
23.681327
25.677442
27.460828
29.000538
30.359379
31.498664
32.435942
33.191891
33.765078
34.211268
34.460869
34.536291
34.428427
34.148694
33.766458
33.339585
32.897132
32.448029
21.457787
22.075291
23.681101
25.677084
27.460367
28.999979
30.358739
31.497972
32.435234
33.191197
33.764429
34.210683
34.460363
34.535876
34.428108
34.148465
33.766307
33.339491
32.897079
32.448003
21.457785
22.075202
23.680763
25.676549
27.459696
28.9992
30.357887
31.49709
32.434364
33.190371
33.763673
34.210014
34.459792
34.535411
34.427753
34.148213
33.76614
33.339388
32.897021
32.447975
21.457795
22.075099
23.680273
25.675784
27.458773
28.998179
30.356819
31.496024
32.433343
33.189423
33.76282
34.209268
34.45916
34.5349
34.427364
34.147937
33.765957
33.339276
32.896958
32.447944
21.457827
22.074984
23.679608
25.674766
27.45759
28.996923
30.35555
31.494792
32.432187
33.188364
33.761875
34.208447
34.458467
34.53434
34.426939
34.147635
33.765758
33.339153
32.896889
32.44791
21.457893
22.07487
23.678788
25.673514
27.456172
28.99546
30.354105
31.493412
32.430904
33.187196
33.760837
34.207546
34.457708
34.533727
34.426473
34.147304
33.765539
33.339019
32.896814
32.447873
21.458007
22.074784
23.677866
25.672088
27.454571
28.993828
30.352508
31.491894
32.429496
33.185916
33.759698
34.206558
34.456874
34.533054
34.425961
34.146941
33.765299
33.338871
32.89673
32.447832
21.458187
22.074766
23.676918
25.670561
27.452845
28.992063
30.350775
31.49024
32.427956
33.18451
33.758446
34.205468
34.455954
34.53231
34.425395
34.14654
33.765034
33.338708
32.896639
32.447786
21.45845
22.074874
23.676022
25.669002
27.451043
28.990191
30.348913
31.488445
32.426272
33.182965
33.757063
34.204262
34.454935
34.531485
34.424767
34.146094
33.76474
33.338527
32.896537
32.447736
21.458817
22.075178
23.67525
25.667469
27.449204
28.988233
30.346926
31.486502
32.42443
33.181262
33.755532
34.202924
34.453801
34.530567
34.424069
34.145599
33.764413
33.338325
32.896424
32.44768
21.459309
22.075754
23.674671
25.666005
27.44736
28.986205
30.344818
31.484403
32.422415
33.179384
33.753834
34.201434
34.452537
34.529543
34.423289
34.145046
33.764048
33.338101
32.896297
32.447618
21.459952
22.076681
23.67435
25.664652
27.445536
28.984126
30.342599
31.482147
32.420218
33.177316
33.751952
34.199777
34.451128
34.5284
34.422419
34.144429
33.763641
33.33785
32.896156
32.447548
21.460768
22.07804
23.67436
25.663452
27.443764
28.982019
30.340281
31.47974
32.417834
33.175046
33.74987
34.197934
34.449556
34.527123
34.421446
34.143739
33.763186
33.33757
32.895999
32.44747
21.461782
22.079907
23.674779
25.662452
27.442077
28.979909
30.337889
31.477194
32.415267
33.172569
33.747576
34.195891
34.447807
34.525699
34.420359
34.142968
33.762677
33.337258
32.895823
32.447383
21.463016
22.082351
23.675713
25.661716
27.440521
28.977834
30.33545
31.474534
32.41253
33.169887
33.745064
34.193636
34.445867
34.524113
34.419148
34.142108
33.762109
33.336909
32.895627
32.447286
21.464484
22.085431
23.677343
25.661324
27.439156
28.975837
30.333004
31.471789
32.409645
33.167013
33.742336
34.191164
34.443725
34.522355
34.417801
34.14115
33.761477
33.33652
32.895408
32.447178
21.466191
22.089204
23.679865
25.661406
27.438056
28.973978
30.330598
31.469
32.406645
33.163967
33.739402
34.188474
34.441375
34.520415
34.416308
34.140085
33.760773
33.336087
32.895165
32.447057
21.468127
22.093723
23.683296
25.662163
27.437322
28.972332
30.328291
31.466218
32.403569
33.160781
33.736281
34.185576
34.438816
34.518286
34.414662
34.138908
33.759993
33.335606
32.894895
32.446924
21.470263
22.099054
23.687584
25.663815
27.437085
28.970996
30.326158
31.463502
32.400469
33.157497
33.733004
34.182487
34.436056
34.515969
34.412857
34.137611
33.759132
33.335075
32.894596
32.446776
21.472573
22.105256
23.693011
25.666482
27.437508
28.970091
30.324294
31.46093
32.397408
33.154165
33.729608
34.179234
34.43311
34.513467
34.410893
34.136192
33.758185
33.334489
32.894266
32.446613
21.475083
22.112375
23.700006
25.670254
27.43879
28.969777
30.322822
31.458595
32.39446
33.150847
33.726145
34.175854
34.430003
34.510794
34.408773
34.134648
33.757151
33.333848
32.893905
32.446435
21.477968
22.120441
23.708109
25.675665
27.441198
28.970256
30.321899
31.456616
32.391721
33.14762
33.722674
34.172394
34.426765
34.507968
34.406505
34.132982
33.756028
33.333149
32.893512
32.446241
21.481575
22.129015
23.715917
25.684086
27.445155
28.971771
30.321717
31.455144
32.389307
33.144576
33.719268
34.168911
34.423441
34.505018
34.404104
34.1312
33.754819
33.332394
32.893085
32.446032
21.486328
22.13593
23.725241
25.695519
27.451078
28.9746
30.322522
31.454372
32.387365
33.141831
33.716016
34.165474
34.420082
34.501978
34.401591
34.129313
33.753528
33.331583
32.892627
32.445809
21.492616
22.142375
23.736468
25.706971
27.460334
28.979152
30.32461
31.454537
32.386079
33.139528
33.713029
34.162169
34.41675
34.498893
34.398994
34.127335
33.752162
33.33072
32.89214
32.445573
21.500773
22.151665
23.74685
25.717221
27.473579
28.986203
30.328327
31.455929
32.385683
33.137841
33.71044
34.159096
34.413523
34.495815
34.396347
34.125287
33.750733
33.329813
32.891627
32.445327
21.51117
22.163563
23.753231
25.729477
27.488649
28.997096
30.334196
31.458902
32.386464
33.13699
33.708414
34.156383
34.410491
34.492809
34.393691
34.123195
33.749255
33.328867
32.891094
32.445074
21.524411
22.178333
23.758153
25.741531
27.503298
29.012319
30.343212
31.463879
32.388757
33.137247
33.707152
34.154179
34.407766
34.489951
34.391075
34.121088
33.747748
33.327896
32.890547
32.444821
21.541371
22.196168
23.766328
25.747809
27.518462
29.030074
30.356462
31.471507
32.392973
33.138943
33.706898
34.152667
34.405479
34.487333
34.388559
34.119005
33.746233
33.326913
32.889996
32.444572
21.563053
22.218064
23.776778
25.750023
27.531531
29.048344
30.373968
31.483042
32.399646
33.142471
33.707958
34.152064
34.403785
34.485058
34.38621
34.116988
33.744738
33.325935
32.889453
32.444337
21.590614
22.24483
23.78975
25.753489
27.53749
29.064868
30.394641
31.499294
32.409631
33.148249
33.710682
34.152639
34.402869
34.483245
34.384105
34.115086
33.743297
33.324983
32.888932
32.444134
21.625472
22.277439
23.806212
25.758469
27.53807
29.074527
30.41582
31.519564
32.424118
33.156482
33.71544
34.154706
34.402944
34.482032
34.382328
34.113355
33.741943
33.324081
32.88845
32.444001
21.669231
22.317101
23.827088
25.764782
27.53898
29.07615
30.429919
31.541781
32.443908
33.168021
33.722482
34.158566
34.404237
34.481606
34.380968
34.111851
33.740716
33.323257
32.888043
32.443935
21.723654
22.365241
23.853309
25.773347
27.541192
29.072962
30.433594
31.55951
32.467619
33.185315
33.732016
34.164269
34.406874
34.482203
34.380136
34.110636
33.739662
33.322557
32.887784
32.443708
21.790803
22.423428
23.885967
25.784759
27.543861
29.069256
30.429257
31.566522
32.487444
33.207859
33.746595
34.171416
34.41104
34.483642
34.379926
34.109812
33.738885
33.32203
32.887695
32.443239
21.872931
22.493478
23.926361
25.799382
27.547645
29.065202
30.420327
31.564086
32.495057
33.227813
33.766497
34.182341
34.417634
34.484554
34.38021
34.109521
33.738534
33.321602
32.887419
32.443029
21.971943
22.576858
23.97666
25.817871
27.552925
29.060233
30.411305
31.554174
32.491656
33.235452
33.785142
34.198271
34.426383
34.486326
34.380879
34.10944
33.738192
33.321227
32.887134
32.443237
22.089551
22.673118
24.039657
25.842347
27.559498
29.05523
30.400348
31.540401
32.480198
33.22892
33.793169
34.213791
34.436618
34.490361
34.381901
34.109377
33.737743
33.321003
32.887175
32.443568
22.226293
22.78344
24.11332
25.876619
27.566133
29.051161
30.387765
31.525289
32.462587
33.213887
33.787326
34.21792
34.445174
34.495165
34.38305
34.109446
33.737524
33.320956
32.887331
32.44397
22.383248
22.909913
24.193904
25.917513
27.577529
29.049834
30.373958
31.506953
32.44389
33.194277
33.775155
34.206184
34.442723
34.497279
34.383991
34.109422
33.737344
33.32101
32.887588
32.444464
22.560733
23.055048
24.287343
25.963936
27.592205
29.0507
30.358089
31.486046
32.422535
33.171865
33.758533
34.185652
34.42929
34.490619
34.382418
34.108987
33.736983
33.321032
32.887907
32.445047
22.754094
23.216335
24.396589
26.015709
27.60563
29.050036
30.341255
31.464014
32.398368
33.148695
33.734806
34.163725
34.411372
34.47674
34.374081
34.106615
33.736242
33.320891
32.888197
32.445678
22.95777
23.390783
24.516109
26.070981
27.623264
29.048804
30.325262
31.441103
32.373038
33.122655
33.709847
34.140658
34.390499
34.459336
34.360908
34.099709
33.734178
33.320455
32.888365
32.446285
23.17405
23.57838
24.641792
26.13306
27.644903
29.048865
30.309201
31.416597
32.345197
33.094381
33.683
34.114772
34.367608
34.440018
34.345438
34.089518
33.729176
33.319051
32.888318
32.446798
23.402817
23.776589
24.778731
26.203315
27.672616
29.050008
30.29261
31.390562
32.315304
33.064249
33.653482
34.086988
34.342901
34.418892
34.328486
34.077341
33.721855
33.315488
32.887523
32.447146
23.642816
23.987606
24.927062
26.282144
27.703051
29.052286
30.276184
31.363318
32.283556
33.031569
33.621517
34.056765
34.315763
34.395748
34.309879
34.064129
33.712943
33.310711
32.884982
32.446919
23.894633
24.210996
25.086845
26.369762
27.740413
29.056608
30.259944
31.334811
32.249592
32.996347
33.586903
34.023881
34.286202
34.370516
34.289644
34.049471
33.703285
33.304765
32.881393
32.445533
24.15759
24.446626
25.258426
26.467406
27.784155
29.06308
30.243975
31.305071
32.2135
32.958489
33.549521
33.988126
34.25412
34.342873
34.267593
34.033244
33.692567
33.297916
32.87724
32.443345
24.43139
24.694091
25.442401
26.575484
27.834219
29.072996
30.229055
31.274584
32.175364
32.918049
33.509092
33.949553
34.21902
34.313019
34.243163
34.015807
33.68047
33.2903
32.87283
32.440721
24.715322
24.953043
25.638783
26.694496
27.89164
29.087207
30.215552
31.243352
32.135252
32.8747
33.465714
33.907583
34.181196
34.28012
34.216956
33.996159
33.667696
33.281411
32.86822
32.437619
25.008757
25.222795
25.84752
26.825026
27.957322
29.106362
30.203884
31.211841
32.093194
32.828734
33.418988
33.862523
34.139914
34.244694
34.187992
33.975046
33.65321
33.272056
32.862562
32.434464
25.310744
25.502642
26.068258
26.967602
28.032031
29.131214
30.194759
31.18038
32.049553
32.779919
33.369105
33.813811
34.095412
34.20604
34.156544
33.951909
33.637184
33.261943
32.856052
32.431289
25.62039
25.791535
26.300612
27.122422
28.116603
29.16259
30.188851
31.149541
32.004462
32.728504
33.315805
33.761563
34.047281
34.164155
34.122373
33.926466
33.61978
33.250588
32.849037
32.427593
25.936499
26.088453
26.543799
27.289616
28.211729
29.201337
30.186959
31.119856
31.95835
32.674542
33.259183
33.705571
33.995407
34.118851
34.085176
33.898709
33.600666
33.238017
32.841353
32.42338
26.257894
26.3921
26.796928
27.469001
28.318012
29.248297
30.189912
31.092027
31.911637
32.618286
33.199251
33.645776
33.939651
34.0699
34.044802
33.868453
33.57962
33.224246
32.832792
32.418714
26.583199
26.701124
27.058843
27.660155
28.435859
29.304278
30.198598
31.066812
31.864877
32.560032
33.136122
33.582154
33.879884
34.017125
34.001095
33.835428
33.556577
33.20906
32.823322
32.413499
26.910986
27.01404
27.328208
27.862365
28.565453
29.370004
30.213913
31.045053
31.818717
32.50019
33.069981
33.514743
33.816004
33.9604
33.953821
33.799484
33.531341
33.192325
32.812858
32.407658
27.239723
27.329279
27.603509
28.074632
28.706694
29.446064
30.23674
31.027649
31.773912
32.439264
33.001116
33.44363
33.747993
33.899575
33.902824
33.760428
33.503719
33.173916
32.801281
32.401127
27.56782
27.645199
27.883096
28.295677
28.859176
29.532847
30.267898
31.015534
31.7313
32.377886
32.929903
33.369008
33.675865
33.834569
33.847952
33.71806
33.473534
33.153674
32.788477
32.393823
27.893639
27.960109
28.165205
28.523978
29.022152
29.630492
30.308093
31.009639
31.691802
32.316788
32.856843
33.291157
33.599716
33.765344
33.789073
33.672205
33.440601
33.131435
32.774326
32.385657
28.215521
28.272285
28.447995
28.757798
29.19454
29.738829
30.357857
31.010846
31.656386
32.256818
32.782552
33.210467
33.519737
33.69192
33.726102
33.622704
33.404731
33.107035
32.758694
32.376531
28.531807
28.579997
28.729584
28.995236
29.374943
29.857345
30.417487
31.01994
31.62603
32.19891
32.70777
33.127451
33.436214
33.614397
33.659
33.569422
33.36575
33.0803
32.741442
32.366338
28.840865
28.881533
29.008072
29.234283
29.561682
29.98517
30.486984
31.037544
31.601681
32.144064
32.633354
33.042747
33.349555
33.532966
33.587793
33.512261
33.323494
33.051061
32.722423
32.354967
29.141106
29.17522
29.281581
29.472866
29.752858
30.121079
30.566015
31.064059
31.584193
32.09331
32.560262
32.957121
33.260291
33.447922
33.512584
33.451176
33.277823
33.019153
32.701486
32.3423
29.431014
29.459455
29.548282
29.708904
29.94641
30.263527
30.653881
31.099604
31.57427
32.047651
32.489526
32.871461
33.169088
33.359681
33.433569
33.386182
33.228635
32.984423
32.678482
32.328214
29.70916
29.732723
29.806427
29.940353
30.140193
30.410707
30.749521
31.143968
31.572401
32.008011
32.422218
32.786758
33.076748
33.268788
33.351051
33.317375
33.17587
32.94674
32.653264
32.312588
29.974229
29.993624
30.054378
30.16525
30.332039
30.56062
30.85154
31.196587
31.5788
31.97517
32.359394
32.704082
32.984195
33.175928
33.265455
33.244948
33.119536
32.906008
32.625703
32.295299
30.225032
30.24089
30.290633
30.381757
30.519831
30.711159
30.958263
31.256536
31.593362
31.949695
32.302035
32.624536
32.892461
33.081919
33.177341
33.169202
33.059723
32.862168
32.595695
32.27623
30.460528
30.473405
30.51385
30.588191
30.701556
30.860192
31.067814
31.322563
31.615634
31.931882
32.25098
32.549209
32.802653
32.987708
33.087403
33.090568
32.996612
32.815234
32.563165
32.25529
30.679842
30.690222
30.722872
30.783058
30.875359
31.005642
31.178203
31.393143
31.644819
31.921718
32.206859
32.479112
32.715911
32.894351
32.996479
33.009616
32.930504
32.765301
32.528083
32.232415
30.882274
30.89058
30.916737
30.965081
31.039587
31.145558
31.287419
31.466556
31.679803
31.918852
32.170037
32.415111
32.633357
32.802975
32.905535
32.92706
32.861838
32.712561
32.490499
32.207579
31.067315
31.073909
31.094699
31.13321
31.192823
31.278176
31.393522
31.540982
31.719222
31.922606
32.140573
32.357872
32.556021
32.714752
32.815641
32.843771
32.791193
32.657335
32.450546
32.180817
31.234654
31.239846
31.256231
31.286648
31.333907
31.401969
31.494713
31.614598
31.761534
31.93201
32.118204
32.307796
32.484803
32.630816
32.727963
32.760744
32.71933
32.600075
32.408481
32.15225
31.384184
31.388235
31.401037
31.424843
31.461956
31.515674
31.589413
31.685661
31.805126
31.945865
32.102363
32.265006
32.420386
32.552249
32.643685
32.679129
32.647139
32.541439
32.364664
32.122157
31.515994
31.519128
31.529036
31.547499
31.576358
31.61832
31.676282
31.752601
31.848394
31.962834
32.092223
32.229322
32.363236
32.479975
32.564025
32.600144
32.575702
32.482281
32.319758
32.090939
31.630365
31.632765
31.640366
31.654552
31.676774
31.709218
31.754275
31.814056
31.889843
31.981523
32.086771
32.200311
32.313549
32.414785
32.490109
32.525153
32.506219
32.423762
32.274667
32.058991
31.727741
31.729563
31.735345
31.746147
31.763107
31.787957
31.822612
31.868933
31.92814
32.000593
32.084889
32.177334
32.2713
32.357262
32.423042
32.455485
32.440274
32.367284
32.230267
32.026935
31.808673
31.810048
31.814419
31.822593
31.835454
31.854344
31.880801
31.916363
31.962153
32.018814
32.085457
32.159634
32.236307
32.307799
32.363906
32.392453
32.379701
32.31428
32.187748
31.99574
31.873743
31.87478
31.878083
31.884265
31.894012
31.908353
31.928518
31.955737
31.991042
32.035074
32.087421
32.146471
32.208266
32.266781
32.31361
32.337705
32.32616
32.266476
32.148709
31.966677
31.923415
31.924204
31.926727
31.931461
31.938934
31.949953
31.965493
31.986552
32.014019
32.048506
32.089909
32.137139
32.186941
32.234583
32.273132
32.2929
32.281645
32.226078
32.115168
31.941349
31.957818
31.958443
31.960448
31.964215
31.97017
31.978965
31.991398
32.008299
32.030438
32.058385
32.092192
32.131105
32.17229
32.21195
32.243823
32.25955
32.248405
32.195708
32.089584
31.921769
31.976155
31.97669
31.978422
31.981686
31.986852
31.994491
32.005303
32.020032
32.039371
32.063896
32.093594
32.128164
32.164556
32.199997
32.228467
32.240284
32.229364
32.178459
32.074928
31.910418
32.065079
31.761035
31.468718
31.203668
30.953801
30.714647
30.487687
30.270719
30.062442
29.862273
29.67108
29.487676
29.309958
29.138944
28.975492
28.818476
28.666669
28.520024
28.379644
28.245124
28.1163
27.992949
27.874481
27.761042
27.652995
27.550435
27.453287
27.36156
27.275285
27.194543
27.119237
27.049152
26.984754
26.926102
26.873311
26.826464
26.785634
26.750892
26.722292
26.699898
26.683787
26.674029
26.670638
26.673618
26.682916
26.698505
26.720438
26.748662
26.78244
26.821315
26.866531
26.918603
26.977791
27.044382
27.118682
27.201012
27.291688
27.391048
27.499429
27.617183
27.74466
27.882229
28.030249
28.1891
28.359153
28.5408
28.734422
28.940416
29.159174
29.391108
29.636626
29.89616
30.170149
30.45903
30.763243
31.083232
31.419452
31.772359
32.142414
32.530081
32.935831
33.360139
33.803486
34.266358
34.74925
35.252651
35.777065
36.322991
36.890947
37.48144
38.094997
38.732135
39.393388
40.07928
40.790356
41.527149
42.290214
43.080098
43.897359
44.742564
45.616285
46.519103
47.451602
48.41437
49.408001
50.433095
51.490254
52.580089
53.703212
54.860235
56.051783
57.278478
58.540961
59.839849
61.175801
62.549431
63.961411
65.412363
66.90297
68.433851
70.005694
71.619126
73.274843
74.973474
76.715706
78.502201
80.333613
82.21062
84.13388
86.104069
88.121849
90.187892
92.302847
94.467391
96.682175
98.947873
101.26513
103.6346
106.05697
108.5328
111.06285
113.64763
116.2879
118.98414
121.7371
124.54721
127.41524
130.34153
133.32683
136.37144
139.47594
142.64058
145.86596
149.15176
152.49931
155.90619
159.37739
162.90219
166.50195
170.13342
32.065079
31.761035
31.468719
31.203669
30.953802
30.714648
30.487688
30.270721
30.062444
29.862274
29.671082
29.487677
29.30996
29.138946
28.975494
28.818478
28.666671
28.520026
28.379646
28.245126
28.116302
27.992951
27.874484
27.761045
27.652997
27.550438
27.453289
27.361562
27.275287
27.194545
27.11924
27.049154
26.984756
26.926104
26.873313
26.826466
26.785636
26.750893
26.722293
26.699899
26.683788
26.67403
26.670638
26.673618
26.682915
26.698504
26.720436
26.74866
26.782438
26.821312
26.866527
26.918599
26.977787
27.044377
27.118676
27.201005
27.29168
27.391039
27.499419
27.617173
27.744648
27.882216
28.030234
28.189084
28.359135
28.540781
28.734401
28.940394
29.159149
29.391082
29.636597
29.89613
30.170117
30.458995
30.763205
31.083192
31.419409
31.772313
32.142365
32.530028
32.935774
33.360079
33.803422
34.26629
34.749178
35.252574
35.776984
36.322905
36.890856
37.481344
38.094895
38.732027
39.393274
40.07916
40.790229
41.527015
42.290073
43.07995
43.897203
44.7424
45.616113
46.518922
47.451412
48.41417
49.407791
50.432874
51.490023
52.579847
53.702958
54.859969
56.051505
57.278187
58.540656
59.83953
61.175467
62.549082
63.961047
65.411982
66.902572
68.433435
70.00526
71.618674
73.274371
74.972982
76.715193
78.501666
80.333056
82.21004
84.133276
86.103441
88.121194
90.187211
92.302139
94.466654
96.68141
98.947077
101.26431
103.63374
106.05608
108.53187
111.06189
113.64663
116.28686
118.98306
121.73598
124.54606
127.41404
130.34029
133.32554
136.37011
139.47456
142.63916
145.86448
149.15023
152.49773
155.90456
159.37571
162.90044
166.50015
170.13156
32.065079
31.761035
31.468719
31.203669
30.953803
30.714649
30.487689
30.270722
30.062445
29.862276
29.671083
29.487679
29.309962
29.138948
28.975496
28.818481
28.666674
28.520029
28.379648
28.245129
28.116305
27.992954
27.874486
27.761048
27.653
27.55044
27.453292
27.361565
27.27529
27.194548
27.119242
27.049157
26.984758
26.926106
26.873316
26.826468
26.785638
26.750895
26.722295
26.6999
26.683789
26.67403
26.670638
26.673618
26.682915
26.698503
26.720435
26.748658
26.782435
26.821309
26.866524
26.918595
26.977782
27.044371
27.118669
27.200998
27.291671
27.39103
27.499409
27.617161
27.744635
27.882202
28.030219
28.189067
28.359117
28.540761
28.734379
28.94037
29.159124
29.391054
29.636568
29.896098
30.170082
30.458958
30.763165
31.083149
31.419363
31.772264
32.142312
32.529972
32.935715
33.360016
33.803355
34.266219
34.749102
35.252494
35.776898
36.322815
36.89076
37.481242
38.094788
38.731914
39.393154
40.079034
40.790096
41.526874
42.289925
43.079793
43.897039
44.742226
45.615931
46.51873
47.45121
48.413959
49.407569
50.432642
51.489779
52.579591
53.702689
54.859688
56.051211
57.277879
58.540334
59.839192
61.175115
62.548713
63.960661
65.41158
66.902151
68.432997
70.004802
71.618196
73.273872
74.972462
76.714651
78.501101
80.332468
82.209427
84.132638
86.102776
88.120503
90.186491
92.301391
94.465876
96.680601
98.946236
101.26343
103.63283
106.05514
108.5309
111.06087
113.64557
116.28577
118.98193
121.73481
124.54484
127.41277
130.33897
133.32418
136.3687
139.4731
142.63765
145.86292
149.14862
152.49606
155.90283
159.37392
162.8986
166.49825
170.12959
32.065078
31.761036
31.46872
31.20367
30.953804
30.714651
30.487691
30.270724
30.062447
29.862278
29.671085
29.487681
29.309964
29.13895
28.975499
28.818483
28.666676
28.520031
28.379651
28.245131
28.116307
27.992956
27.874489
27.76105
27.653003
27.550443
27.453295
27.361568
27.275293
27.194551
27.119245
27.049159
26.984761
26.926109
26.873318
26.82647
26.78564
26.750897
26.722296
26.699901
26.68379
26.674031
26.670639
26.673617
26.682914
26.698502
26.720433
26.748656
26.782433
26.821306
26.86652
26.918591
26.977777
27.044365
27.118662
27.20099
27.291663
27.39102
27.499398
27.617149
27.744622
27.882188
28.030203
28.18905
28.359098
28.54074
28.734357
28.940346
29.159097
29.391025
29.636537
29.896064
30.170046
30.458919
30.763124
31.083105
31.419315
31.772213
32.142258
32.529914
32.935653
33.35995
33.803285
34.266144
34.749022
35.252409
35.776809
36.32272
36.89066
37.481136
38.094676
38.731795
39.393029
40.078901
40.789956
41.526727
42.28977
43.07963
43.896867
44.742046
45.61574
46.51853
47.451
48.413738
49.407338
50.432399
51.489524
52.579324
53.702409
54.859394
56.050903
57.277557
58.539997
59.83884
61.174746
62.548328
63.960259
65.411159
66.901712
68.432538
70.004324
71.617697
73.273352
74.971919
76.714085
78.500511
80.331853
82.208787
84.131971
86.102083
88.119781
90.18574
92.300609
94.465064
96.679756
98.945358
101.26252
103.63188
106.05415
108.52987
111.05981
113.64447
116.28462
118.98074
121.73358
124.54356
127.41145
130.33761
133.32276
136.36723
139.47158
142.63607
145.86129
149.14693
152.49432
155.90103
159.37206
162.89667
166.49627
170.12753
32.065078
31.761036
31.46872
31.203671
30.953805
30.714652
30.487692
30.270725
30.062449
29.86228
29.671087
29.487683
29.309966
29.138952
28.975501
28.818485
28.666679
28.520034
28.379654
28.245134
28.11631
27.992959
27.874492
27.761053
27.653006
27.550446
27.453298
27.361571
27.275296
27.194554
27.119248
27.049162
26.984764
26.926111
26.87332
26.826472
26.785642
26.750899
26.722298
26.699903
26.683791
26.674032
26.670639
26.673617
26.682914
26.698501
26.720432
26.748654
26.78243
26.821302
26.866516
26.918586
26.977771
27.044359
27.118655
27.200982
27.291653
27.39101
27.499387
27.617136
27.744607
27.882172
28.030186
28.189031
28.359077
28.540718
28.734332
28.940319
29.159068
29.390994
29.636503
29.896027
30.170007
30.458877
30.763078
31.083056
31.419263
31.772158
32.142198
32.529851
32.935585
33.359878
33.803208
34.266063
34.748936
35.252317
35.776711
36.322617
36.89055
37.48102
38.094553
38.731665
39.392892
40.078757
40.789804
41.526566
42.2896
43.079451
43.896679
44.741848
45.615532
46.518311
47.45077
48.413497
49.407084
50.432133
51.489245
52.579031
53.702103
54.859073
56.050567
57.277205
58.539629
59.838455
61.174343
62.547907
63.959819
65.410699
66.901232
68.432037
70.003801
71.617151
73.272782
74.971325
76.713466
78.499866
80.331181
82.208087
84.131242
86.101324
88.118991
90.184918
92.299754
94.464175
96.678832
98.944397
101.26152
103.63085
106.05307
108.52875
111.05865
113.64327
116.28337
118.97945
121.73223
124.54217
127.41001
130.33611
133.32121
136.36563
139.46991
142.63435
145.85951
149.14508
152.49241
155.89905
159.37002
162.89456
166.49409
170.12528
32.065078
31.761036
31.468721
31.203672
30.953807
30.714654
30.487694
30.270727
30.062451
29.862282
29.67109
29.487686
29.309969
29.138955
28.975504
28.818488
28.666682
28.520037
28.379657
28.245137
28.116313
27.992963
27.874495
27.761057
27.653009
27.55045
27.453302
27.361574
27.275299
27.194557
27.119251
27.049166
26.984767
26.926114
26.873323
26.826475
26.785644
26.750901
26.7223
26.699904
26.683792
26.674033
26.670639
26.673617
26.682913
26.6985
26.72043
26.748652
26.782427
26.821299
26.866512
26.918581
26.977765
27.044352
27.118647
27.200972
27.291643
27.390998
27.499374
27.617122
27.744592
27.882154
28.030166
28.18901
28.359054
28.540693
28.734305
28.940289
29.159036
29.390959
29.636465
29.895987
30.169964
30.45883
30.763028
31.083003
31.419206
31.772096
32.142133
32.529781
32.935511
33.359798
33.803124
34.265973
34.74884
35.252216
35.776604
36.322503
36.890429
37.480893
38.094418
38.731523
39.392741
40.078598
40.789636
41.526389
42.289414
43.079255
43.896472
44.74163
45.615303
46.518071
47.450518
48.413231
49.406805
50.43184
51.488938
52.578709
53.701766
54.85872
56.050197
57.276817
58.539223
59.838031
61.1739
62.547443
63.959334
65.410193
66.900703
68.431485
70.003224
71.616549
73.272155
74.970671
76.712784
78.499155
80.330441
82.207315
84.130439
86.100487
88.11812
90.184012
92.298812
94.463195
96.677813
98.943338
101.26042
103.6297
106.05189
108.52752
111.05737
113.64194
116.28199
118.97802
121.73075
124.54063
127.40841
130.33445
133.3195
136.36385
139.46808
142.63245
145.85754
149.14305
152.4903
155.89688
159.36777
162.89224
166.49169
170.1228
32.065077
31.761036
31.468722
31.203673
30.953808
30.714656
30.487696
30.27073
30.062454
29.862285
29.671093
29.487689
29.309972
29.138958
28.975507
28.818492
28.666685
28.520041
28.379661
28.245141
28.116317
27.992967
27.874499
27.761061
27.653013
27.550454
27.453306
27.361578
27.275303
27.194561
27.119255
27.049169
26.98477
26.926118
26.873327
26.826478
26.785647
26.750904
26.722302
26.699906
26.683794
26.674034
26.67064
26.673618
26.682913
26.698499
26.720429
26.74865
26.782424
26.821295
26.866507
26.918575
26.977759
27.044344
27.118638
27.200963
27.291632
27.390986
27.49936
27.617107
27.744575
27.882136
28.030146
28.188987