/*--------------------------------*- C++ -*----------------------------------*\
| =========                 |                                                 |
| \\      /  F ield         | OpenFOAM: The Open Source CFD Toolbox           |
|  \\    /   O peration     | Version:  2406                                  |
|   \\  /    A nd           | Website:  www.openfoam.com                      |
|    \\/     M anipulation  |                                                 |
\*---------------------------------------------------------------------------*/
FoamFile
{
    version     2.0;
    format      ascii;
    arch        "LSB;label=32;scalar=64";
    class       surfaceScalarField;
    location    "2406";
    object      phi;
}
// * * * * * * * * * * * * * * * * * * * * * * * * * * * * * * * * * * * * * //

dimensions      [0 3 -1 0 0 0 0];

oriented        oriented;

internalField   nonuniform List<scalar> 
137424
(
1.6816637e-08
2.8390377e-10
2.4918979e-08
-8.1015157e-09
4.1426232e-08
-1.6506676e-08
6.2627354e-08
-2.1200559e-08
8.6496916e-08
-2.3868165e-08
1.128645e-07
-2.6365973e-08
1.4196433e-07
-2.9098318e-08
1.7370834e-07
-3.1742318e-08
2.0776512e-07
-3.4055952e-08
2.4368169e-07
-3.5915752e-08
2.8066387e-07
-3.6980871e-08
3.1780045e-07
-3.7135733e-08
3.5390149e-07
-3.6098846e-08
3.8737398e-07
-3.3470466e-08
4.1649095e-07
-2.9114514e-08
4.400658e-07
-2.3565217e-08
4.5780148e-07
-1.7728616e-08
4.7019963e-07
-1.2391422e-08
4.7807509e-07
-7.8874895e-09
-4.3072713e-09
4.8241366e-07
5.7659919e-08
9.7672668e-10
8.5585629e-08
-3.6026213e-08
1.4200704e-07
-7.2927302e-08
2.1427725e-07
-9.3470015e-08
2.9563459e-07
-1.0522376e-07
3.8554428e-07
-1.162736e-07
4.8479289e-07
-1.2834496e-07
5.930806e-07
-1.4002779e-07
7.0927499e-07
-1.5024923e-07
8.3182627e-07
-1.5846594e-07
9.5802312e-07
-1.6317601e-07
1.0847469e-06
-1.6385842e-07
1.2079392e-06
-1.5928831e-07
1.3221625e-06
-1.4769118e-07
1.4215237e-06
-1.2847229e-07
1.5019755e-06
-1.0400523e-07
1.5625031e-06
-7.8247231e-08
1.6048165e-06
-5.4695818e-08
1.6316955e-06
-3.4778683e-08
-1.9079415e-08
1.6465045e-06
1.1125766e-07
1.8242278e-09
1.6536664e-07
-9.0134122e-08
2.7393411e-07
-1.8149396e-07
4.1266719e-07
-2.3220232e-07
5.6881134e-07
-2.6136606e-07
7.4142883e-07
-2.8888889e-07
9.3201276e-07
-3.1892683e-07
1.1399818e-06
-3.4799452e-07
1.3631551e-06
-3.7342143e-07
1.5985454e-06
-3.9385507e-07
1.8409358e-06
-4.055647e-07
2.0843207e-06
-4.0724208e-07
2.320904e-06
-3.9586872e-07
2.5402438e-06
-3.6702817e-07
2.7310279e-06
-3.1925273e-07
2.8854955e-06
-2.5846023e-07
3.0017048e-06
-1.9444697e-07
3.0829424e-06
-1.3592411e-07
3.1345472e-06
-8.6396949e-08
-4.7473221e-08
3.1629803e-06
1.8084271e-07
2.3568977e-09
2.6915889e-07
-1.7844919e-07
4.4511624e-07
-3.5745034e-07
6.6939264e-07
-4.5647783e-07
9.2173484e-07
-5.137063e-07
1.2007834e-06
-5.67935e-07
1.5089174e-06
-6.2705851e-07
1.8451695e-06
-6.8424398e-07
2.2059859e-06
-7.3423649e-07
2.5864986e-06
-7.7436649e-07
2.9782367e-06
-7.9730087e-07
3.3714533e-06
-8.0045725e-07
3.7535404e-06
-7.7795256e-07
4.1076415e-06
-7.2112631e-07
4.4155262e-06
-6.2713306e-07
4.6647235e-06
-5.0764496e-07
4.8521529e-06
-3.8186604e-07
4.983153e-06
-2.6691352e-07
5.0663587e-06
-1.6961286e-07
-9.3278815e-08
5.1122021e-06
2.7042368e-07
1.7871453e-09
4.0306791e-07
-3.110923e-07
6.6535603e-07
-6.1973748e-07
9.987289e-07
-7.8984979e-07
1.373646e-06
-8.8862143e-07
1.7883201e-06
-9.8260655e-07
2.2461944e-06
-1.0849305e-06
2.7457331e-06
-1.18378e-06
3.2815464e-06
-1.2700485e-06
3.8462712e-06
-1.33909e-06
4.4272014e-06
-1.378229e-06
5.0097617e-06
-1.3830162e-06
5.5752268e-06
-1.3434142e-06
6.098689e-06
-1.2445855e-06
6.5533355e-06
-1.0817749e-06
6.9209671e-06
-8.7526387e-07
7.1972592e-06
-6.5814761e-07
7.3902541e-06
-4.5989805e-07
7.5127875e-06
-2.9215631e-07
-1.6073981e-07
7.5802854e-06
3.8497231e-07
-1.1351928e-09
5.7469574e-07
-5.0081451e-07
9.4678457e-07
-9.9182513e-07
1.418201e-06
-1.2612651e-06
1.9479848e-06
-1.418403e-06
2.533896e-06
-1.568515e-06
3.1805436e-06
-1.7315753e-06
3.8854515e-06
-1.8886848e-06
4.6406556e-06
-2.0252509e-06
5.4353665e-06
-2.1337995e-06
6.2513014e-06
-2.1941617e-06
7.0676626e-06
-2.1993758e-06
7.858091e-06
-2.133839e-06
8.5879252e-06
-1.9744163e-06
9.2202441e-06
-1.7140888e-06
9.7304231e-06
-1.3854301e-06
1.0113162e-05
-1.0408755e-06
1.0380149e-05
-7.2687369e-07
1.0549505e-05
-4.6151876e-07
-2.5394387e-07
1.0642745e-05
5.3065427e-07
-8.3231902e-09
7.9350642e-07
-7.6366543e-07
1.3043865e-06
-1.502704e-06
1.9492134e-06
-1.906091e-06
2.6730239e-06
-2.1422112e-06
3.4729835e-06
-2.3684719e-06
4.3547062e-06
-2.6132953e-06
5.3139759e-06
-2.8479516e-06
6.338969e-06
-3.0502424e-06
7.4139702e-06
-3.2087993e-06
8.513254e-06
-3.2934433e-06
9.6080819e-06
-3.2942021e-06
1.0662935e-05
-3.1886891e-06
1.1632103e-05
-2.9435809e-06
1.2467854e-05
-2.549835e-06
1.3139418e-05
-2.0569819e-06
1.3641571e-05
-1.5430187e-06
1.3990994e-05
-1.0762861e-06
1.4212269e-05
-6.8280036e-07
-3.7561339e-07
1.4333969e-05
7.1511398e-07
-2.2624504e-08
1.0712759e-06
-1.119826e-06
1.7566063e-06
-2.188033e-06
2.6176689e-06
-2.7671524e-06
3.582268e-06
-3.1068079e-06
4.6464778e-06
-3.4326785e-06
5.8161185e-06
-3.7829329e-06
7.0835789e-06
-4.1154085e-06
8.4309445e-06
-4.3976062e-06
9.8352475e-06
-4.6131007e-06
1.1260951e-05
-4.7191446e-06
1.2669683e-05
-4.7029324e-06
1.401592e-05
-4.5349225e-06
1.5242987e-05
-4.1706447e-06
1.6293484e-05
-3.600327e-06
1.7132432e-05
-2.8959183e-06
1.7756727e-05
-2.1673035e-06
1.8189606e-05
-1.5091543e-06
1.8463087e-05
-9.562852e-07
-5.2578324e-07
1.8613286e-05
9.478283e-07
-4.8190324e-08
1.4226306e-06
-1.5946269e-06
2.3259859e-06
-3.091387e-06
3.4544023e-06
-3.8955676e-06
4.7142039e-06
-4.3666071e-06
6.0990645e-06
-4.817536e-06
7.6129688e-06
-5.2968342e-06
9.2418879e-06
-5.7443244e-06
1.0958416e-05
-6.1141332e-06
1.2729444e-05
-6.3841265e-06
1.4507615e-05
-6.4973144e-06
1.6244542e-05
-6.4398576e-06
1.7885934e-05
-6.1763119e-06
1.9366759e-05
-5.6514672e-06
2.0623388e-05
-4.8569516e-06
2.1619888e-05
-3.8924093e-06
2.2357507e-05
-2.9049148e-06
2.2867054e-05
-2.0186941e-06
2.3188203e-05
-1.277436e-06
-7.0189426e-07
2.3364334e-05
1.2405346e-06
-9.0960207e-08
1.865663e-06
-2.2197537e-06
3.0397203e-06
-4.2654426e-06
4.4950727e-06
-5.3509186e-06
6.1106805e-06
-5.9822122e-06
7.8750386e-06
-6.5818907e-06
9.7864291e-06
-7.2082215e-06
1.1820034e-05
-7.7779256e-06
1.3935298e-05
-8.2293955e-06
1.6087317e-05
-8.5361445e-06
1.8217598e-05
-8.6275925e-06
2.0270673e-05
-8.4929316e-06
2.2187792e-05
-8.0934274e-06
2.3900229e-05
-7.3639022e-06
2.5342121e-05
-6.298839e-06
2.6478963e-05
-5.0292439e-06
2.7317088e-05
-3.7430324e-06
2.7894519e-05
-2.5961159e-06
2.8257871e-05
-1.6407894e-06
-9.0099312e-07
2.8456989e-05
1.6077397e-06
-1.5928059e-07
2.4225683e-06
-3.0345808e-06
3.929859e-06
-5.7727316e-06
5.7788749e-06
-7.1999331e-06
7.8129312e-06
-8.0162659e-06
1.0010672e-05
-8.7796285e-06
1.2359405e-05
-9.5569513e-06
1.4819702e-05
-1.023822e-05
1.733708e-05
-1.0746772e-05
1.9857726e-05
-1.1056789e-05
2.2317445e-05
-1.108731e-05
2.465985e-05
-1.0835336e-05
2.6826893e-05
-1.0260469e-05
2.8749522e-05
-9.2865293e-06
3.0360946e-05
-7.9102594e-06
3.1627653e-05
-6.2959464e-06
3.2559784e-05
-4.6751581e-06
3.3201273e-05
-3.2376004e-06
3.3604727e-05
-2.0442431e-06
-1.1220664e-06
3.3825811e-05
2.0673e-06
-2.6464802e-07
3.1201499e-06
-4.0874289e-06
5.0326388e-06
-7.6852186e-06
7.3451675e-06
-9.5124602e-06
9.8545065e-06
-1.0525602e-05
1.2524016e-05
-1.1449134e-05
1.5326426e-05
-1.2359359e-05
1.8208915e-05
-1.3120706e-05
2.1108961e-05
-1.3646816e-05
2.3972165e-05
-1.3919992e-05
2.6736286e-05
-1.385143e-05
2.9348853e-05
-1.3447901e-05
3.1754235e-05
-1.2665849e-05
3.3882418e-05
-1.141471e-05
3.5663657e-05
-9.6914962e-06
3.7063039e-05
-7.6953228e-06
3.8092625e-05
-5.704739e-06
3.8801209e-05
-3.9461776e-06
3.9246958e-05
-2.4899912e-06
-1.3664318e-06
3.9491336e-05
2.641041e-06
-4.2252425e-07
3.9898691e-06
-5.4362553e-06
6.3861264e-06
-1.0081474e-05
9.2272551e-06
-1.2353588e-05
1.2252093e-05
-1.3550438e-05
1.5407039e-05
-1.4604078e-05
1.8654071e-05
-1.5606388e-05
2.193676e-05
-1.6403393e-05
2.5195749e-05
-1.6905805e-05
2.8384306e-05
-1.7108548e-05
3.1445772e-05
-1.6912895e-05
3.4331282e-05
-1.633341e-05
3.6985162e-05
-1.5319727e-05
3.9333193e-05
-1.3762741e-05
4.1299488e-05
-1.1657789e-05
4.2845308e-05
-9.2411396e-06
4.3983356e-05
-6.8427833e-06
4.4767008e-05
-4.7298265e-06
4.5260239e-05
-2.9832218e-06
-1.6370216e-06
4.5530835e-05
3.355291e-06
-6.5302128e-07
5.0668589e-06
-7.1478211e-06
8.0253275e-06
-1.3039941e-05
1.1443974e-05
-1.5772232e-05
1.4998818e-05
-1.7105279e-05
1.8628464e-05
-1.8233721e-05
2.2298396e-05
-1.9276318e-05
2.5962761e-05
-2.0067755e-05
2.9573688e-05
-2.0516731e-05
3.309385e-05
-2.0628708e-05
3.6469818e-05
-2.0288861e-05
3.96525e-05
-1.9516092e-05
4.2582393e-05
-1.8249619e-05
4.5177742e-05
-1.6358088e-05
4.7353808e-05
-1.3833853e-05
4.9066362e-05
-1.0953689e-05
5.0328216e-05
-8.1046333e-06
5.1197681e-05
-5.5992868e-06
5.1745237e-05
-3.5307758e-06
-1.9376235e-06
5.2045848e-05
4.2411526e-06
-9.8106145e-07
6.3871283e-06
-9.2937949e-06
9.9748119e-06
-1.6627623e-05
1.3993025e-05
-1.9790444e-05
1.8067516e-05
-2.1179769e-05
2.2151409e-05
-2.2317612e-05
2.6231371e-05
-2.3356279e-05
3.0280363e-05
-2.4116746e-05
3.426172e-05
-2.4498087e-05
3.8143297e-05
-2.4510285e-05
4.1870039e-05
-2.4015602e-05
4.538863e-05
-2.3034682e-05
4.8632697e-05
-2.1493685e-05
5.1510463e-05
-1.9235853e-05
5.3926366e-05
-1.6249755e-05
5.5829613e-05
-1.2856934e-05
5.7233064e-05
-9.5080821e-06
5.8200665e-05
-6.5668859e-06
5.8810337e-05
-4.1404462e-06
-2.2725465e-06
5.9145264e-05
5.3342239e-06
-1.4352936e-06
7.9827127e-06
-1.1942282e-05
1.2241854e-05
-2.0886762e-05
1.685317e-05
-2.4401759e-05
2.1427409e-05
-2.5754006e-05
2.5956946e-05
-2.6847147e-05
3.045821e-05
-2.7857541e-05
3.4920678e-05
-2.8579212e-05
3.9312854e-05
-2.8890262e-05
4.3602271e-05
-2.8799701e-05
4.7728088e-05
-2.8141418e-05
5.1629982e-05
-2.6936576e-05
5.5232697e-05
-2.5096398e-05
5.8432631e-05
-2.2435785e-05
6.1121845e-05
-1.8938966e-05
6.32422e-05
-1.4977286e-05
6.4806757e-05
-1.1072636e-05
6.5885965e-05
-7.6460888e-06
6.6566253e-05
-4.820733e-06
-2.646464e-06
6.6940178e-05
6.6737211e-06
-2.0449774e-06
9.8768351e-06
-1.5145394e-05
1.4816796e-05
-2.5826721e-05
1.9999463e-05
-2.9584426e-05
2.506582e-05
-3.0820361e-05
3.005788e-05
-3.1839205e-05
3.5017405e-05
-3.2817065e-05
3.9942489e-05
-3.3504295e-05
4.4800418e-05
-3.3748191e-05
4.9554363e-05
-3.3553646e-05
5.4134986e-05
-3.2722039e-05
5.8473213e-05
-3.1274802e-05
6.2483508e-05
-2.9106692e-05
6.6048949e-05
-2.6001226e-05
6.9047798e-05
-2.1937813e-05
7.1413868e-05
-1.7343354e-05
7.3160641e-05
-1.2819407e-05
7.4366031e-05
-8.8514763e-06
7.5126134e-05
-5.5808352e-06
-3.064448e-06
7.5544121e-05
8.3016789e-06
-2.8346692e-06
1.2084304e-05
-1.8928016e-05
1.7685914e-05
-3.142833e-05
2.3424308e-05
-3.5322818e-05
2.9000553e-05
-3.6396605e-05
3.4497305e-05
-3.7335955e-05
3.9971005e-05
-3.8290763e-05
4.5420866e-05
-3.8954155e-05
5.0808551e-05
-3.9135875e-05
5.6090476e-05
-3.883557e-05
6.1187064e-05
-3.7818627e-05
6.6019277e-05
-3.6107014e-05
7.0490136e-05
-3.357755e-05
7.4467946e-05
-2.9979035e-05
7.7815705e-05
-2.528557e-05
8.0458444e-05
-1.9986089e-05
8.2410302e-05
-1.4771262e-05
8.3757678e-05
-1.0198848e-05
8.4607577e-05
-6.4307318e-06
-3.5319823e-06
8.5075118e-05
1.0263853e-05
-3.8181393e-06
1.4620363e-05
-2.3284524e-05
2.0851047e-05
-3.7659012e-05
2.7150088e-05
-4.1621859e-05
3.3278165e-05
-4.2524682e-05
3.9339561e-05
-4.339735e-05
4.5395182e-05
-4.4346383e-05
5.1440229e-05
-4.4999202e-05
5.7428062e-05
-4.5123707e-05
6.3306904e-05
-4.4714412e-05
6.8985612e-05
-4.3497334e-05
7.4374121e-05
-4.1495523e-05
7.9362849e-05
-3.8566278e-05
8.3803782e-05
-3.4419967e-05
8.7543055e-05
-2.9024842e-05
9.0496094e-05
-2.2939127e-05
9.2677923e-05
-1.695309e-05
9.4184507e-05
-1.1705431e-05
9.5135083e-05
-7.3813063e-06
-4.055065e-06
9.5658168e-05
1.2613317e-05
-4.9938707e-06
1.7512921e-05
-2.8184127e-05
2.4341919e-05
-4.4488009e-05
3.1227487e-05
-4.8507426e-05
3.7965577e-05
-4.9262771e-05
4.466224e-05
-5.0094012e-05
5.137504e-05
-5.1059182e-05
5.8091796e-05
-5.1715956e-05
6.4755766e-05
-5.1787676e-05
7.1305881e-05
-5.1264528e-05
7.7638171e-05
-4.9829623e-05
8.3650436e-05
-4.7507787e-05
8.9219218e-05
-4.4135059e-05
9.4178458e-05
-3.9379206e-05
9.8355654e-05
-3.3202036e-05
0.00010165569
-2.6239165e-05
0.00010409469
-1.9392086e-05
0.00010577933
-1.3390066e-05
0.00010684251
-8.4444768e-06
-4.6402445e-06
0.00010742769
1.5415702e-05
-6.3433923e-06
2.0809249e-05
-3.3577673e-05
2.821535e-05
-5.1894109e-05
3.5727714e-05
-5.6019791e-05
4.3143166e-05
-5.6678221e-05
5.0552262e-05
-5.7503107e-05
5.8003178e-05
-5.8510097e-05
6.5473746e-05
-5.9186523e-05
7.2895573e-05
-5.9209503e-05
8.0197212e-05
-5.8566166e-05
8.7260475e-05
-5.6892887e-05
9.3969775e-05
-5.4217086e-05
0.00010018632
-5.0351606e-05
0.00010572409
-4.4916968e-05
0.00011038993
-3.7867881e-05
0.00011407715
-2.9926385e-05
0.00011680315
-2.2118079e-05
0.00011868653
-1.527345e-05
0.00011987539
-9.6333371e-06
-5.2947288e-06
0.00012052988
1.8754438e-05
-7.8319521e-06
2.4577834e-05
-3.9401067e-05
3.2549391e-05
-5.9865664e-05
4.0736684e-05
-6.4207083e-05
4.8901931e-05
-6.4843467e-05
5.7105359e-05
-6.5706534e-05
6.5380511e-05
-6.6785248e-05
7.3692753e-05
-6.7498763e-05
8.1960399e-05
-6.7477148e-05
9.0100362e-05
-6.6706129e-05
9.7978637e-05
-6.4771161e-05
0.00010546478
-6.1703232e-05
0.00011240302
-5.7289844e-05
0.00011858516
-5.1099105e-05
0.00012379521
-4.307793e-05
0.00012791369
-3.4044855e-05
0.00013095943
-2.5163823e-05
0.00013306432
-1.7378332e-05
0.00013439327
-1.0962291e-05
-6.0264212e-06
0.00013512497
2.2735509e-05
-9.4105041e-06
2.8909551e-05
-4.5575107e-05
3.7439971e-05
-6.8396084e-05
4.6353437e-05
-7.3120549e-05
5.5343941e-05
-7.383397e-05
6.4427633e-05
-7.4790226e-05
7.3618334e-05
-7.5975948e-05
8.2866251e-05
-7.674668e-05
9.2074498e-05
-7.6685395e-05
0.00010114682
-7.5778449e-05
0.0001099315
-7.3555839e-05
0.00011828154
-7.0053278e-05
0.00012602227
-6.5030574e-05
0.00013292088
-5.7997709e-05
0.00013873603
-4.889308e-05
0.00014333412
-3.8642947e-05
0.00014673563
-2.8565323e-05
0.00014908704
-1.9729749e-05
0.00015057195
-1.2447194e-05
-6.8440255e-06
0.00015138955
2.7492264e-05
-1.1018365e-05
3.3920243e-05
-5.2003085e-05
4.3001519e-05
-7.7477358e-05
5.26918e-05
-8.281083e-05
6.2584789e-05
-8.3726958e-05
7.2638318e-05
-8.4843754e-05
8.2841126e-05
-8.6178755e-05
9.3125183e-05
-8.7030736e-05
0.00010337613
-8.6936339e-05
0.00011348267
-8.5884986e-05
0.00012327315
-8.3346319e-05
0.00013258204
-7.9362172e-05
0.00014121357
-7.3662104e-05
0.00014890754
-6.5691681e-05
0.00015539452
-5.5380051e-05
0.0001605253
-4.3773723e-05
0.0001643221
-3.2362125e-05
0.00016694759
-2.2355228e-05
0.00016860587
-1.4105481e-05
-7.7570743e-06
0.00016951893
3.3190956e-05
-1.2586508e-05
3.975529e-05
-5.8567418e-05
4.9370669e-05
-8.7092736e-05
5.9884087e-05
-9.3324248e-05
7.0757314e-05
-9.4600184e-05
8.1873384e-05
-9.5959822e-05
9.3189965e-05
-9.7495335e-05
0.00010461721
-9.8457977e-05
0.00011602058
-9.8339712e-05
0.00012727149
-9.7135892e-05
0.00013817572
-9.4250549e-05
0.00014854689
-8.9733343e-05
0.00015816562
-8.3280832e-05
0.0001667412
-7.4267265e-05
0.000173973
-6.2611854e-05
0.0001796946
-4.9495316e-05
0.00018393009
-3.6597616e-05
0.00018685987
-2.5285003e-05
0.00018871069
-1.59563e-05
-8.7760215e-06
0.00018972964
4.0037427e-05
-1.4041678e-05
4.6596069e-05
-6.5126058e-05
5.671211e-05
-9.7208776e-05
6.8086539e-05
-0.00010469868
8.0016343e-05
-0.00010652999
9.2289929e-05
-0.00010823341
0.0001048266
-0.000110032
0.00011751047
-0.00011114185
0.0001301837
-0.00011101294
0.00014269766
-0.00010964986
0.00015483253
-0.00010638541
0.00016637835
-0.00010127917
0.00017708925
-9.3991731e-05
0.0001866405
-8.3818514e-05
0.00019469684
-7.0668186e-05
0.00020107279
-5.5871262e-05
0.00020579444
-4.1319272e-05
0.00020906163
-2.8552186e-05
0.00021112595
-1.8020616e-05
-9.9122486e-06
0.00021226218
4.8284972e-05
-1.5311434e-05
5.4668964e-05
-7.151005e-05
6.5226601e-05
-0.00010776641
7.7486273e-05
-0.00011695835
9.0544518e-05
-0.00011958823
0.00010407146
-0.00012176035
0.00011793829
-0.00012389883
0.00013199808
-0.00012520164
0.00014606603
-0.00012508088
0.00015997028
-0.00012355411
0.00017346176
-0.00011987689
0.00018630385
-0.00011412125
0.00019822083
-0.00010590871
0.00020884997
-9.4447655e-05
0.00021781756
-7.9635767e-05
0.00022491708
-6.2970781e-05
0.0002301767
-4.6578893e-05
0.00023381746
-3.2192945e-05
0.00023611815
-2.0321309e-05
-1.1178125e-05
0.00023738403
5.8242867e-05
-1.6329509e-05
6.4257536e-05
-7.7524717e-05
7.5161634e-05
-0.00011867051
8.8309731e-05
-0.00013010644
0.0001025595
-0.000133838
0.00011743431
-0.00013663515
0.00013274371
-0.00013920823
0.00014830355
-0.00014076148
0.00016389782
-0.00014067516
0.00017932772
-0.00013898401
0.00019431078
-0.00013485995
0.00020858003
-0.00012839051
0.0002218261
-0.00011915478
0.00023364373
-0.00010626529
0.0002436165
-8.9608529e-05
0.00025151467
-7.0868946e-05
0.00025736851
-5.2432735e-05
0.00026142216
-3.6246586e-05
0.00026398407
-2.2883216e-05
-1.2586963e-05
0.00026539291
7.0287111e-05
-1.704221e-05
7.5719257e-05
-8.2956862e-05
8.6825326e-05
-0.00012977658
0.0001008336
-0.00014411472
0.00011632298
-0.00014932738
0.00013263554
-0.00015294772
0.00014950002
-0.00015607271
0.00016668727
-0.00015794872
0.00018394507
-0.00015793296
0.00020104328
-0.00015608222
0.0002176613
-0.00015147796
0.00023349761
-0.00014422682
0.00024820475
-0.00013386192
0.00026132981
-0.00011939035
0.00027240892
-0.00010068763
0.0002811867
-7.964673e-05
0.00028769554
-5.894157e-05
0.00029220457
-4.0755609e-05
0.00029505449
-2.5733137e-05
-1.4152998e-05
0.00029662053
8.4873542e-05
-1.7416558e-05
8.9506289e-05
-8.7589606e-05
0.00010060416
-0.00014087444
0.00011539902
-0.00015890958
0.00013215252
-0.00016608088
0.00014998281
-0.00017077801
0.00016851171
-0.00017460161
0.00018745455
-0.00017689156
0.00020651682
-0.00017699523
0.00022543192
-0.00017499731
0.00024383563
-0.00016988167
0.00026138713
-0.00016177832
0.00027769578
-0.00015017057
0.00029225522
-0.00013394979
0.00030454879
-0.0001129812
0.00031429288
-8.9390816e-05
0.00032152187
-6.6170556e-05
0.00032653186
-4.57656e-05
0.00032969847
-2.889974e-05
-1.5891239e-05
0.00033143672
0.00010255611
-1.7453351e-05
0.00010619295
-9.1226447e-05
0.0001169856
-0.0001516671
0.0001324299
-0.00017435388
0.00015043697
-0.00018408794
0.00016984687
-0.00019018791
0.00019014148
-0.00019489621
0.00021096543
-0.00019771552
0.00023197418
-0.00019800398
0.00025285846
-0.00019588159
0.00027320424
-0.00019022745
0.00029262597
-0.00018120005
0.00031068398
-0.00016822858
0.00032681188
-0.00015007769
0.00034043437
-0.00012660369
0.00035123668
-0.00010019313
0.00035925504
-7.4188909e-05
0.00036481445
-5.1325007e-05
0.00036832807
-3.241336e-05
-1.7817291e-05
0.00037025412
0.00012401365
-1.7211468e-05
0.00012651223
-9.3725029e-05
0.00013658838
-0.00016174325
0.00015245765
-0.00019022314
0.00017165572
-0.00020328601
0.00019267745
-0.00021120964
0.00021482406
-0.00021704282
0.00023764686
-0.00022053831
0.00026074129
-0.00022109841
0.0002837477
-0.00021888801
0.00030619498
-0.00021267473
0.0003276467
-0.00020265176
0.00034760759
-0.00018818947
0.00036544377
-0.00016791387
0.00038051477
-0.00014167469
0.00039247157
-0.00011214993
0.0004013519
-8.3069237e-05
0.00040751154
-5.7484639e-05
0.0004114038
-3.630562e-05
-1.9946978e-05
0.0004135335
0.00015008538
-1.6849719e-05
0.00015139938
-9.503903e-05
0.00016020033
-0.00017054419
0.00017615367
-0.00020617648
0.00019640481
-0.00022353715
0.00021902402
-0.00023382885
0.00024308379
-0.00024110259
0.00026800797
-0.0002454625
0.00029331894
-0.00024640937
0.00031859664
-0.00024416571
0.00034330423
-0.00023738232
0.00036694733
-0.00022629486
0.0003889676
-0.00021020975
0.00040865534
-0.0001876016
0.00042529772
-0.00015831707
0.00043850813
-0.00012536034
0.00044832536
-9.2886459e-05
0.00045513761
-6.4296891e-05
0.00045944082
-4.0608829e-05
-2.2295875e-05
0.00046178972
0.0001817987
-1.6675768e-05
0.00018202252
-9.5262853e-05
0.00018882402
-0.00017734569
0.00020437068
-0.00022172314
0.00022543033
-0.0002445968
0.00024956454
-0.00025796306
0.00027555707
-0.00026709512
0.00030265953
-0.00027256496
0.00033030155
-0.00027405138
0.00035798965
-0.00027185381
0.00038511052
-0.00026450319
0.00041110362
-0.00025228796
0.00043533894
-0.00023444507
0.00045702162
-0.00020928429
0.0004753587
-0.00017665414
0.00048992249
-0.00013992413
0.00050075215
-0.00010371612
0.00050826976
-7.1814492e-05
0.00051301599
-4.5355053e-05
-2.4878515e-05
0.00051559863
0.00022031692
-1.7119289e-05
0.00021971034
-9.465627e-05
0.00022372525
-0.00018136059
0.00023820213
-0.00023620002
0.0002596745
-0.00026606917
0.00028514116
-0.00028342972
0.00031302172
-0.00029497567
0.00034233855
-0.00030188179
0.00037239856
-0.00030411139
0.00040261722
-0.00030207248
0.00043229132
-0.00029417728
0.00046078411
-0.00028078075
0.00048738396
-0.00026104491
0.00051120038
-0.00023310071
0.00053135188
-0.00019680564
0.00054736622
-0.00015593846
0.00055928205
-0.00011563195
0.00056755628
-8.008872e-05
0.00057277601
-5.0574787e-05
-2.7707377e-05
0.00057560487
0.00026669009
-1.842933e-05
0.00026563314
-9.3599312e-05
0.00026648234
-0.00018220979
0.00027906222
-0.0002487799
0.00030033713
-0.00028734408
0.00032680833
-0.00030990092
0.00035643498
-0.00032460232
0.00038794022
-0.00033338703
0.00042046159
-0.00033663275
0.00045329952
-0.00033491041
0.00048564363
-0.00032652139
0.00051676844
-0.00031190556
0.00054586873
-0.00029014521
0.0005719466
-0.00025917857
0.0005940231
-0.00021888214
0.000611578
-0.00017349336
0.00062464843
-0.00012870237
0.00063372652
-8.9166806e-05
0.00063944677
-5.6295039e-05
-3.0791368e-05
0.00064253077
0.00032188772
-2.0374959e-05
0.0003208836
-9.2595192e-05
0.00031911343
-0.00018043961
0.00032879063
-0.0002584571
0.00034895326
-0.00030750671
0.00037589598
-0.00033684364
0.00040698669
-0.00035569303
0.00044055915
-0.00036695949
0.00047551901
-0.00037159261
0.00051101602
-0.00037040743
0.00054610964
-0.000361615
0.00057996975
-0.00034576566
0.00061168286
-0.00032185832
0.00064012997
-0.00028762568
0.00066422523
-0.00024297739
0.0006833974
-0.00019266553
0.00069768079
-0.00014298576
0.0007076024
-9.9088411e-05
0.00071384408
-6.253672e-05
-3.4133864e-05
0.00071718658
0.00038735928
-2.2474137e-05
0.0003875851
-9.2821005e-05
0.00038453847
-0.00017739298
0.00038968449
-0.00026360312
0.00040749738
-0.00032531959
0.00043409667
-0.00036344293
0.00046616751
-0.00038776387
0.00050154326
-0.00040233524
0.00053882089
-0.00040887024
0.00057694322
-0.00040852975
0.00061480895
-0.00039948073
0.00065146249
-0.00038241921
0.00068586355
-0.00035625938
0.0007167559
-0.00031851803
0.00074293669
-0.00026915818
0.00076378117
-0.00021351001
0.00077931939
-0.00015852397
0.00079011176
-0.00010988077
0.00079688612
-6.9311076e-05
-3.7729968e-05
0.00080048223
0.00046515264
-2.4306707e-05
0.00046823578
-9.5904144e-05
0.00046569956
-0.00017485676
0.00046465236
-0.00026255592
0.00047854537
-0.0003392126
0.00050358256
-0.00038848012
0.00053585924
-0.00042004055
0.00057256581
-0.00043904181
0.00061189666
-0.0004482011
0.0006525026
-0.00044913568
0.00069307913
-0.00044005726
0.00073251692
-0.000421857
0.0007696252
-0.00039336765
0.00080299098
-0.00035188381
0.00083128344
-0.00029745065
0.00085382254
-0.00023604911
0.00087063234
-0.00017533377
0.00088230386
-0.0001215523
0.00088960773
-7.6614941e-05
-4.1562978e-05
0.00089344074
0.00055795809
-2.5836267e-05
0.00056345292
-0.00010139897
0.00056286283
-0.00017426666
0.00055717588
-0.00025686898
0.00056544754
-0.00034748425
0.00058715556
-0.00041018814
0.00061845639
-0.00045134138
0.00065572574
-0.00047631115
0.00069663072
-0.00048910607
0.00073942278
-0.00049192775
0.00078252711
-0.00048316159
0.00082464229
-0.00046397218
0.00086439581
-0.00043312116
0.00090019385
-0.00038768185
0.00093056542
-0.00032782221
0.00095477411
-0.00026025781
0.00097283586
-0.00019339551
0.00098536759
-0.00013408403
0.0009931771
-8.4424442e-05
-4.5599644e-05
0.00099721377
0.0006688784
-2.7467606e-05
0.00067494634
-0.00010746691
0.00067844366
-0.00017776397
0.00067232998
-0.00025075529
0.00067223319
-0.00034738745
0.00068844723
-0.00042640218
0.00071703826
-0.00047993241
0.00075367478
-0.00051294767
0.00079536043
-0.00053079172
0.00083981922
-0.00053638654
0.00088509473
-0.00052843709
0.00092964117
-0.00050851863
0.00097186216
-0.00047534215
0.001009953
-0.00042577267
0.0010422883
-0.00036015756
0.0010680751
-0.0002860446
0.001087318
-0.00021263839
0.0011006526
-0.00014741859
0.001108915
-9.2686812e-05
-4.9784102e-05
0.0011130994
0.0008007886
-2.9433784e-05
0.00080569927
-0.00011237757
0.00081430936
-0.00018637406
0.00081261687
-0.0002490628
0.0008041861
-0.00033895668
0.00081228159
-0.00043449767
0.00083558015
-0.00050323096
0.00086978623
-0.00054715375
0.00091102101
-0.00057202649
0.00095629766
-0.00058166319
0.0010031424
-0.0005752818
0.0010496775
-0.00055505378
0.0010940259
-0.00051969054
0.0011341328
-0.00046587955
0.0011682021
-0.00039422687
0.001195384
-0.00031322645
0.0012156669
-0.00023292129
0.0012296941
-0.00016144578
0.001238317
-0.00010130973
-5.4029939e-05
0.0012425628
0.00095671018
-3.1535662e-05
0.00096152414
-0.00011719152
0.00097253003
-0.00019737995
0.00097769107
-0.00025422384
0.0009675859
-0.00032885151
0.00096422533
-0.00043113709
0.00097924044
-0.00051824607
0.0010083946
-0.00057630786
0.001047321
-0.00061095299
0.0010920915
-0.00062643369
0.0011395562
-0.00062274646
0.0011873633
-0.00060286085
0.0012332734
-0.00056560063
0.0012749303
-0.00050753652
0.0013103472
-0.00042964379
0.0013386169
-0.00034149612
0.0013597036
-0.00025400793
0.0013742419
-0.00017598407
0.0013830798
-0.00011014764
-5.8210528e-05
0.0013872604
0.0011405947
-3.365848e-05
0.001145917
-0.00012251387
0.0011553849
-0.00020684781
0.001168101
-0.00026693999
0.0011658776
-0.00032662807
0.0011520239
-0.00041728343
0.0011546622
-0.00052088437
0.0011750809
-0.00059672656
0.0012089801
-0.00064485217
0.0012512585
-0.00066871211
0.0012978851
-0.00066937303
0.0013458666
-0.00065084235
0.0013924615
-0.00061219551
0.0014349442
-0.00055001922
0.0014711107
-0.00046581026
0.0014999944
-0.00037037987
0.0015215216
-0.00027553513
0.0015362944
-0.00019075687
0.0015451311
-0.00011898425
-6.2147486e-05
0.001549068
0.0013568512
-3.5835434e-05
0.001362337
-0.00012799962
0.0013715329
-0.00021604376
0.0013880636
-0.0002834707
0.0013970463
-0.00033561072
0.0013827907
-0.00040302789
0.0013697967
-0.00050789029
0.0013771158
-0.00060404569
0.0014020603
-0.00066979669
0.0014389159
-0.00070556774
0.001482523
-0.00071298004
0.0015290487
-0.0006973681
0.0015750252
-0.00065817205
0.0016172589
-0.00059225285
0.001653293
-0.00050184442
0.0016820962
-0.00039918303
0.0017035332
-0.00029697217
0.0017181389
-0.00020536254
0.001726665
-0.00012751038
-6.5596189e-05
0.0017301138
0.0016100443
-3.8066978e-05
0.0016154466
-0.00013340198
0.0016252869
-0.000225884
0.0016392487
-0.00029743256
0.0016574053
-0.00035376723
0.0016583656
-0.00040398819
0.0016350536
-0.00048457833
0.0016230082
-0.00059200029
0.001634358
-0.00068114643
0.0016615575
-0.00073276727
0.0016989653
-0.00075038787
0.0017416329
-0.00074003568
0.0017851074
-0.00070164649
0.001825545
-0.00063269047
0.001860188
-0.00053648744
0.0018879257
-0.00042692072
0.0019085234
-0.0003175698
0.0019223974
-0.00021923663
0.0019301833
-0.0001352962
-6.8227637e-05
0.0019328147
0.0019049304
-4.029612e-05
0.0019102725
-0.00013874405
0.0019200744
-0.00023568592
0.0019337591
-0.00031111727
0.001954954
-0.00037496207
0.0019709759
-0.00042001015
0.0019547065
-0.00046830888
0.0019248202
-0.00056211402
0.0019152822
-0.00067160845
0.0019274017
-0.00074488677
0.001954092
-0.00077707813
0.0019894522
-0.00077539592
0.0020277138
-0.00073990804
0.0020641776
-0.00066915431
0.002095675
-0.00056798485
0.0021209856
-0.00045223132
0.0021397127
-0.00033629685
0.0021520813
-0.00023160523
0.0021585421
-0.00014175704
-6.9601842e-05
0.0021599163
0.0022463389
-4.2470932e-05
0.0022515329
-0.00014393806
0.002260931
-0.00024508405
0.002275148
-0.00032533424
0.0022925201
-0.00039233413
0.0023158477
-0.00044333777
0.0023234044
-0.00047586555
0.0022925005
-0.00053121017
0.0022572951
-0.00063640301
0.0022463638
-0.00073395549
0.0022565193
-0.00078723362
0.0022797206
-0.00079859719
0.0023089041
-0.00076909156
0.0023383698
-0.00069861999
0.0023643226
-0.00059393763
0.0023853621
-0.00047327087
0.0024008291
-0.00035176376
0.0024106524
-0.00024142861
0.002415014
-0.00014611861
-6.9128691e-05
0.0024145409
0.0026387661
-4.4536773e-05
0.0026436268
-0.00014879881
0.0026525632
-0.00025402046
0.0026660175
-0.00033878847
0.0026833995
-0.00040971615
0.0027038865
-0.00046382483
0.0027258474
-0.00049782642
0.0027195457
-0.0005249084
0.0026731045
-0.00058996187
0.0026310207
-0.00069187165
0.0026163623
-0.00077257522
0.0026213169
-0.00080355182
0.0026360413
-0.00078381589
0.0026543091
-0.00071688778
0.0026714962
-0.00061112479
0.0026858157
-0.00048759036
0.0026961858
-0.00036213381
0.0027020927
-0.00024733559
0.0027033503
-0.00014737612
-6.6020763e-05
0.0027002423
0.003085843
-4.6415219e-05
0.0030901947
-0.00015315047
0.0030983239
-0.00026214964
0.0031107275
-0.0003511921
0.0031273829
-0.00042637153
0.0031460134
-0.00048245538
0.0031707334
-0.00052254635
0.0031884487
-0.00054262374
0.0031599473
-0.00056146042
0.0030960511
-0.0006279755
0.0030464383
-0.00072296235
0.0030242669
-0.00078138043
0.0030179086
-0.00077745763
0.003019353
-0.00071833215
0.0030234542
-0.00061522599
0.0030278686
-0.00049200479
0.0030307625
-0.00036502766
0.0030309948
-0.00024756789
0.0030278358
-0.00014421716
-5.9245642e-05
0.0030210607
0.0035896051
-4.803224e-05
0.0035932239
-0.00015676924
0.0036001095
-0.00026903519
0.0036110691
-0.00036215176
0.0036254462
-0.00044074864
0.003643214
-0.00050022313
0.0036621754
-0.00054150775
0.0036849634
-0.00056541179
0.0036920684
-0.00056856537
0.0036425167
-0.0005784238
0.003561862
-0.00064230763
0.0035010867
-0.00072060514
0.0034642496
-0.00074062053
0.0034417761
-0.00069585864
0.0034274492
-0.00060089914
0.0034178833
-0.00048243887