/*--------------------------------*- C++ -*----------------------------------*\
| =========                 |                                                 |
| \\      /  F ield         | OpenFOAM: The Open Source CFD Toolbox           |
|  \\    /   O peration     | Version:  2406                                  |
|   \\  /    A nd           | Website:  www.openfoam.com                      |
|    \\/     M anipulation  |                                                 |
\*---------------------------------------------------------------------------*/
FoamFile
{
    version     2.0;
    format      ascii;
    arch        "LSB;label=32;scalar=64";
    class       volVectorField;
    location    "2406";
    object      U;
}
// * * * * * * * * * * * * * * * * * * * * * * * * * * * * * * * * * * * * * //

dimensions      [0 1 -1 0 0 0 0];

internalField   nonuniform List<vector> 
69120
(
(0.0152671 2.9343081e-07 0)
(0.018559058 -3.8815965e-07 0)
(0.032127012 -6.6640116e-07 0)
(0.051938473 -7.6011372e-07 0)
(0.074681729 -7.5624074e-07 0)
(0.099817623 -7.3915294e-07 0)
(0.12757538 -7.225162e-07 0)
(0.15818531 -6.9785247e-07 0)
(0.19120577 -6.6310311e-07 0)
(0.2264286 -6.1934573e-07 0)
(0.263123 -5.646539e-07 0)
(0.30042701 -5.0237782e-07 0)
(0.33736848 -4.3256043e-07 0)
(0.3725165 -3.5527514e-07 0)
(0.40409303 -2.7365231e-07 0)
(0.43042941 -1.9583288e-07 0)
(0.45088416 -1.3046676e-07 0)
(0.46554843 -8.0703717e-08 0)
(0.47538703 -4.5932248e-08 0)
(0.48104537 -2.131632e-08 0)
(0.047454675 3.7042894e-07 0)
(0.057926456 -9.0418081e-06 0)
(0.10017382 -1.6356506e-05 0)
(0.16157081 -1.8605726e-05 0)
(0.23197774 -1.8556923e-05 0)
(0.30982573 -1.8159697e-05 0)
(0.39582188 -1.7753878e-05 0)
(0.49067206 -1.7156497e-05 0)
(0.59300997 -1.6305697e-05 0)
(0.70218598 -1.5232983e-05 0)
(0.8159336 -1.3894124e-05 0)
(0.93157473 -1.2359087e-05 0)
(1.046092 -1.0642251e-05 0)
(1.1550516 -8.7405909e-06 0)
(1.2529396 -6.7349073e-06 0)
(1.3345848 -4.8292366e-06 0)
(1.3979994 -3.218322e-06 0)
(1.4434639 -1.9927122e-06 0)
(1.4739682 -1.1229539e-06 0)
(1.4915126 -5.4459097e-07 0)
(0.083025071 7.9732504e-07 0)
(0.10172072 -2.8897918e-05 0)
(0.17575173 -5.1740111e-05 0)
(0.28288397 -5.8720658e-05 0)
(0.4056175 -5.8558738e-05 0)
(0.54137398 -5.7326598e-05 0)
(0.69138054 -5.6057193e-05 0)
(0.8568544 -5.4179879e-05 0)
(1.0354127 -5.149894e-05 0)
(1.2259116 -4.8114515e-05 0)
(1.4243909 -4.3887877e-05 0)
(1.6261645 -3.9038504e-05 0)
(1.8259596 -3.3615792e-05 0)
(2.0160432 -2.7608572e-05 0)
(2.1867954 -2.1273075e-05 0)
(2.3292042 -1.5255461e-05 0)
(2.43981 -1.0166773e-05 0)
(2.5191058 -6.2954467e-06 0)
(2.5723086 -3.5454185e-06 0)
(2.6029084 -1.7243089e-06 0)
(0.12234818 1.2878602e-06 0)
(0.15048582 -6.4477449e-05 0)
(0.25976377 -0.00011472699 0)
(0.4171886 -0.00012995514 0)
(0.59734443 -0.00012957314 0)
(0.79668851 -0.00012688025 0)
(1.0170067 -0.00012408824 0)
(1.2600551 -0.00011994342 0)
(1.5223227 -0.00011401345 0)
(1.8020982 -0.00010652058 0)
(2.0935403 -9.7159731e-05 0)
(2.3897338 -8.6415912e-05 0)
(2.6829151 -7.4404944e-05 0)
(2.9617394 -6.1101908e-05 0)
(3.2121058 -4.7075697e-05 0)
(3.4208386 -3.3758184e-05 0)
(3.582911 -2.2496475e-05 0)
(3.6990791 -1.3930054e-05 0)
(3.7770092 -7.8426232e-06 0)
(3.8218276 -3.8190964e-06 0)
(0.16583677 1.4607092e-06 0)
(0.20484172 -0.00012003551 0)
(0.35323469 -0.00021218452 0)
(0.56595021 -0.00023983414 0)
(0.80907569 -0.00023907172 0)
(1.0781734 -0.00023415526 0)
(1.3756086 -0.00022902283 0)
(1.7036733 -0.0002213744 0)
(2.0575716 -0.00021041655 0)
(2.4348997 -0.0001965612 0)
(2.8276911 -0.00017925122 0)
(3.226529 -0.00015938496 0)
(3.6208951 -0.00013718988 0)
(3.9955297 -0.00011262522 0)
(4.3315407 -8.6745045e-05 0)
(4.6113821 -6.2190872e-05 0)
(4.8284781 -4.1435764e-05 0)
(4.98398 -2.5654026e-05 0)
(5.0882472 -1.4439564e-05 0)
(5.1481947 -7.0362943e-06 0)
(0.21395148 8.1737131e-07 0)
(0.2654964 -0.00020048206 0)
(0.45732792 -0.00035359118 0)
(0.73079856 -0.00039867912 0)
(1.0428852 -0.00039727802 0)
(1.3883379 -0.00038916426 0)
(1.7700688 -0.00038062139 0)
(2.1908242 -0.00036784742 0)
(2.644265 -0.00034953597 0)
(3.1270533 -0.00032637974 0)
(3.628741 -0.00029747223 0)
(4.1370565 -0.00026432394 0)
(4.6384403 -0.00022734718 0)
(5.1135002 -0.00018649709 0)
(5.5384672 -0.00014353717 0)
(5.8915472 -0.00010284375 0)
(6.1649131 -6.8486547e-05 0)
(6.3604172 -4.2385929e-05 0)
(6.491363 -2.3848749e-05 0)
(6.5665971 -1.1624781e-05 0)
(0.26720629 -2.21805e-06 0)
(0.33325896 -0.00031403876 0)
(0.57336188 -0.00055014925 0)
(0.91352367 -0.00061933123 0)
(1.3009423 -0.00061684769 0)
(1.729619 -0.00060423465 0)
(2.2028566 -0.0005907996 0)
(2.7235994 -0.00057067191 0)
(3.2835061 -0.00054185442 0)
(3.8778406 -0.00050545371 0)
(4.4931393 -0.00046012278 0)
(5.1138367 -0.0004082663 0)
(5.723095 -0.00035061202 0)
(6.2974453 -0.00028716172 0)
(6.8086779 -0.0002206827 0)
(7.2315304 -0.00015791197 0)
(7.5577064 -0.00010504594 0)
(7.79032 -6.4960069e-05 0)
(7.9458118 -3.6527795e-05 0)
(8.0350363 -1.7804419e-05 0)
(0.32617408 -7.9181719e-06 0)
(0.40905312 -0.00047047675 0)
(0.70282447 -0.00081729036 0)
(1.1160419 -0.00091738566 0)
(1.585364 -0.00091300004 0)
(2.104013 -0.0008940129 0)
(2.6752786 -0.00087345974 0)
(3.3017202 -0.00084271321 0)
(3.972208 -0.00079889923 0)
(4.6798275 -0.00074375718 0)
(5.4074114 -0.00067546501 0)
(6.1357317 -0.00059774625 0)
(6.8447584 -0.0005118862 0)
(7.5076454 -0.00041806468 0)
(8.0930848 -0.00032042833 0)
(8.5740304 -0.00022875803 0)
(8.9429967 -0.00015189152 0)
(9.2050575 -9.3798568e-05 0)
(9.3797419 -5.2691987e-05 0)
(9.4798056 -2.5673616e-05 0)
(0.39149219 -1.8695147e-05 0)
(0.49393418 -0.00067969596 0)
(0.84736875 -0.0011724174 0)
(1.3403008 -0.0013115901 0)
(1.8979093 -0.0013037007 0)
(2.5123891 -0.0012753731 0)
(3.1861896 -0.0012440521 0)
(3.9204176 -0.0011975645 0)
(4.7000093 -0.001132029 0)
(5.5149008 -0.0010502246 0)
(6.3437498 -0.00094998667 0)
(7.163911 -0.00083701907 0)
(7.9531364 -0.00071357976 0)
(8.6829606 -0.00058025787 0)
(9.3212901 -0.00044298497 0)
(9.8415278 -0.00031519706 0)
(10.23822 -0.00020873718 0)
(10.518753 -0.00012865517 0)
(10.70521 -7.2178372e-05 0)
(10.811836 -3.514611e-05 0)
(0.46386732 -3.757193e-05 0)
(0.58910037 -0.00095679175 0)
(1.0087791 -0.0016370456 0)
(1.5880685 -0.001824113 0)
(2.2394108 -0.0018095051 0)
(2.9533476 -0.0017667533 0)
(3.7300963 -0.0017183365 0)
(4.5677966 -0.0016477654 0)
(5.4463308 -0.001550253 0)
(6.3520208 -0.0014304158 0)
(7.260018 -0.0012862164 0)
(8.1459242 -0.0011262997 0)
(8.9874967 -0.00095443629 0)
(9.7571695 -0.00077182198 0)
(10.424402 -0.00058641022 0)
(10.96459 -0.00041563128 0)
(11.374563 -0.00027444128 0)
(11.663576 -0.00016879825 0)
(11.855287 -9.4569283e-05 0)
(11.964806 -4.6017468e-05 0)
(0.54407932 -6.8433695e-05 0)
(0.69589383 -0.0013203084 0)
(1.1888717 -0.0022372744 0)
(1.8605181 -0.0024803915 0)
(2.60883 -0.0024526637 0)
(3.4216024 -0.0023864844 0)
(4.2950401 -0.0023100222 0)
(5.2229987 -0.002202059 0)
(6.1803369 -0.0020575865 0)
(7.1510253 -0.0018844958 0)
(8.1092978 -0.0016817285 0)
(9.0319513 -0.0014618973 0)
(9.8991984 -0.001230584 0)
(10.6861 -0.000989411 0)
(11.364527 -0.00074819407 0)
(11.911809 -0.00052837143 0)
(12.326233 -0.00034795744 0)
(12.617992 -0.00021362197 0)
(12.811381 -0.00011954212 0)
(12.921842 -5.8137281e-05 0)
(0.63298313 -0.00011674212 0)
(0.81577862 -0.0017914703 0)
(1.3892652 -0.0030037136 0)
(2.1575009 -0.0033081723 0)
(3.0019098 -0.0032550802 0)
(3.9062857 -0.0031499253 0)
(4.8615917 -0.0030276298 0)
(5.8577466 -0.0028628041 0)
(6.8670836 -0.0026518244 0)
(7.8745377 -0.0024077818 0)
(8.8568352 -0.0021312734 0)
(9.7941945 -0.0018392606 0)
(10.670073 -0.0015387116 0)
(11.461989 -0.0012309657 0)
(12.143479 -0.00092724615 0)
(12.692789 -0.00065292991 0)
(13.108633 -0.00042910661 0)
(13.401387 -0.00026307863 0)
(13.59546 -0.00014709425 0)
(13.706359 -7.1512936e-05 0)
(0.7315084 -0.00019075903 0)
(0.95027617 -0.0023976587 0)
(1.6109255 -0.0039702207 0)
(2.4764362 -0.0043352719 0)
(3.4097347 -0.0042349849 0)
(4.3903657 -0.0040660088 0)
(5.4051204 -0.0038721751 0)
(6.443237 -0.0036258732 0)
(7.4789743 -0.0033268887 0)
(8.5014592 -0.0029947381 0)
(9.4915291 -0.0026311139 0)
(10.432733 -0.0022566015 0)
(11.310754 -0.0018785316 0)
(12.104336 -0.0014970801 0)
(12.787551 -0.001124491 0)
(13.338635 -0.00079019623 0)
(13.756108 -0.00051857862 0)
(14.050182 -0.0003176335 0)
(14.245224 -0.00017750157 0)
(14.356749 -8.6284698e-05 0)
(0.84065661 -0.00030028828 0)
(1.1008021 -0.0031720392 0)
(1.8533934 -0.0051734372 0)
(2.8109865 -0.0055858578 0)
(3.8181798 -0.0054030707 0)
(4.8529494 -0.0051351116 0)
(5.902347 -0.00483817 0)
(6.9597951 -0.0044846193 0)
(8.0047669 -0.0040780654 0)
(9.0311742 -0.0036435611 0)
(10.023078 -0.0031819223 0)
(10.965849 -0.0027161111 0)
(11.845986 -0.0022528531 0)
(12.642398 -0.0017905256 0)
(13.328938 -0.0013422676 0)
(13.883356 -0.00094192606 0)
(14.30375 -0.00061757011 0)
(14.600092 -0.00037803632 0)
(14.796747 -0.00021118953 0)
(14.909269 -0.00010266257 0)
(0.96149668 -0.00045847917 0)
(1.268367 -0.0041497565 0)
(2.1136672 -0.0066479722 0)
(3.1502583 -0.0070758262 0)
(4.2097725 -0.0067601337 0)
(5.2750498 -0.0063508294 0)
(6.3390935 -0.0059188832 0)
(7.4022991 -0.0054358041 0)
(8.4492725 -0.0049061325 0)
(9.4770301 -0.004357854 0)
(10.471094 -0.0037886544 0)
(11.41727 -0.0032229875 0)
(12.301969 -0.0026664485 0)
(13.103713 -0.0021152928 0)
(13.795804 -0.0015836438 0)
(14.355347 -0.0011102986 0)
(14.779998 -0.00072751853 0)
(15.079537 -0.00044517015 0)
(15.278415 -0.00024865313 0)
(15.392276 -0.00012088876 0)
(1.095161 -0.00068116691 0)
(1.4530984 -0.0053680093 0)
(2.3851518 -0.0084214578 0)
(3.4799473 -0.0088089887 0)
(4.5685901 -0.0082989806 0)
(5.645918 -0.0077062892 0)
(6.7135282 -0.0071127461 0)
(7.7778036 -0.0064830863 0)
(8.8262921 -0.0058178667 0)
(9.8571599 -0.0051455166 0)
(10.856101 -0.0044590367 0)
(11.808608 -0.0037841308 0)
(12.700623 -0.0031251204 0)
(13.51009 -0.0024759949 0)
(14.209665 -0.0018520629 0)
(14.775796 -0.0012977189 0)
(15.205761 -0.00084999545 0)
(15.509215 -0.00051999525 0)
(15.710776 -0.00029042885 0)
(15.826231 -0.00014122503 0)
(1.242845 -0.00098555601 0)
(1.6537159 -0.0068593724 0)
(2.657846 -0.010507512 0)
(3.7863879 -0.010777346 0)
(4.8857642 -0.010011664 0)
(5.9652295 -0.0092012457 0)
(7.0331806 -0.0084263573 0)
(8.0991805 -0.0076366135 0)
(9.1516161 -0.0068243072 0)
(10.188604 -0.0060170309 0)
(11.195395 -0.0052023288 0)
(12.156897 -0.0044073749 0)
(13.058491 -0.0036352677 0)
(13.877519 -0.0028776409 0)
(14.585998 -0.0021512346 0)
(15.15976 -0.0015067694 0)
(15.595775 -0.00098668612 0)
(15.903636 -0.00060354106 0)
(16.108199 -0.00033709175 0)
(16.22542 -0.00016395176 0)
(1.405814 -0.0013877272 0)
(1.8673445 -0.0086443209 0)
(2.9210989 -0.012900653 0)
(4.0616577 -0.012968667 0)
(5.1613813 -0.011897925 0)
(6.2401577 -0.01084497 0)
(7.3095369 -0.0098733698 0)
(8.3798881 -0.0089108472 0)
(9.4392304 -0.0079389758 0)
(10.485127 -0.0069843441 0)
(11.50219 -0.0060287205 0)
(12.474696 -0.0051012003 0)
(13.387485 -0.0042037695 0)
(14.217338 -0.0033256046 0)
(14.935662 -0.0024851395 0)
(15.517731 -0.0017402242 0)
(15.960266 -0.0011394036 0)
(16.272849 -0.00069691652 0)
(16.480612 -0.00038926178 0)
(16.599708 -0.00018937119 0)
(1.5854183 -0.0018992248 0)
(2.0901613 -0.010726843 0)
(3.167898 -0.015582339 0)
(4.3056757 -0.015377784 0)
(5.4018748 -0.013968494 0)
(6.4807874 -0.012654515 0)
(7.5540385 -0.011471891 0)
(8.6314552 -0.01032271 0)
(9.7001801 -0.0091768612 0)
(10.757089 -0.0080604016 0)
(11.786132 -0.0069491632 0)
(12.770993 -0.0058747078 0)
(13.696024 -0.0048380185 0)
(14.537488 -0.0038256736 0)
(15.266224 -0.0028580752 0)
(15.856993 -0.002001085 0)
(16.306321 -0.0013101138 0)
(16.623806 -0.00080132598 0)
(16.834886 -0.00044761289 0)
(16.955916 -0.00021781192 0)
(1.7831173 -0.0025238555 0)
(2.3187352 -0.013095777 0)
(3.3972111 -0.01853524 0)
(4.5239008 -0.018011508 0)
(5.616046 -0.016242629 0)
(6.6969236 -0.014651541 0)
(7.7763235 -0.013242482 0)
(8.8628924 -0.011890627 0)
(9.9427342 -0.010554057 0)
(11.012043 -0.0092590729 0)
(12.05414 -0.0079754159 0)
(13.052168 -0.0067377035 0)
(13.990039 -0.0055460075 0)
(14.843541 -0.0043841243 0)
(15.582976 -0.0032747131 0)
(16.182635 -0.0022926222 0)
(16.638884 -0.0015009624 0)
(16.961357 -0.00091808579 0)
(17.175808 -0.00051288229 0)
(17.298798 -0.00024963335 0)
(2.000514 -0.0032558032 0)
(2.5512015 -0.01572922 0)
(3.6125197 -0.021749374 0)
(4.7238459 -0.020885567 0)
(5.8123973 -0.018744135 0)
(6.8967901 -0.016860042 0)
(7.9839231 -0.015207197 0)
(9.0809688 -0.01363423 0)
(10.172962 -0.012087761 0)
(11.255454 -0.010595255 0)
(12.311173 -0.0091201722 0)
(13.322766 -0.0077008169 0)
(14.27374 -0.0063364281 0)
(15.13944 -0.0050077987 0)
(15.889658 -0.0037401565 0)
(16.49825 -0.0026184145 0)
(16.961444 -0.001714301 0)
(17.288922 -0.0010486405 0)
(17.506758 -0.00058587961 0)
(17.631711 -0.00028522999 0)
(2.2393989 -0.0040793771 0)
(2.7876831 -0.018597777 0)
(3.8192444 -0.025219972 0)
(4.9128301 -0.024019706 0)
(5.9981179 -0.021498715 0)
(7.0868835 -0.01930532 0)
(8.1825725 -0.017389331 0)
(9.2907316 -0.015574421 0)
(10.395332 -0.013796424 0)
(11.491312 -0.012085033 0)
(12.560834 -0.010397202 0)
(13.586075 -0.0087756197 0)
(14.550166 -0.0072187675 0)
(15.428027 -0.005704179 0)
(16.188961 -0.0042599944 0)
(16.806415 -0.0029823873 0)
(17.276505 -0.0019527129 0)
(17.608956 -0.0011945789 0)
(17.830157 -0.00066749569 0)
(17.957057 -0.0003250356 0)
(2.5018026 -0.0049698966 0)
(3.0300859 -0.021665231 0)
(4.0231228 -0.028944569 0)
(5.0971899 -0.027434804 0)
(6.179026 -0.024532893 0)
(7.2722868 -0.022013741 0)
(8.376672 -0.019813486 0)
(9.4960066 -0.017733518 0)
(10.613204 -0.015699916 0)
(11.722601 -0.01374583 0)
(12.805803 -0.011821486 0)
(13.844537 -0.0099747376 0)
(14.821564 -0.008203399 0)
(15.711397 -0.0064814598 0)
(16.482862 -0.0048403558 0)
(17.109026 -0.0033888507 0)
(17.5859 -0.0022190385 0)
(17.923253 -0.0013576495 0)
(18.147774 -0.00075871146 0)
(18.276593 -0.00036952718 0)
(2.7900433 -0.0058951202 0)
(3.281667 -0.024887409 0)
(4.2296357 -0.032920709 0)
(5.2822779 -0.03115156 0)
(6.3598657 -0.027873728 0)
(7.4570764 -0.025012754 0)
(8.5697135 -0.022505684 0)
(9.6998055 -0.0201354 0)
(10.829204 -0.017819667 0)
(11.951641 -0.015596544 0)
(13.048157 -0.01340933 0)
(14.100031 -0.011311954 0)
(15.089656 -0.009301669 0)
(15.991147 -0.007348616 0)
(16.772861 -0.005487961 0)
(17.407508 -0.0038425367 0)
(17.891006 -0.0025163998 0)
(18.233157 -0.0015397769 0)
(18.460934 -0.00086060665 0)
(18.591627 -0.00041922884 0)
(3.1067496 -0.0068169781 0)
(3.5466576 -0.028210316 0)
(4.4439851 -0.037143365 0)
(5.4727324 -0.035189447 0)
(6.5446615 -0.031548629 0)
(7.6446867 -0.02833088 0)
(8.7646243 -0.025493414 0)
(9.904638 -0.022805576 0)
(11.045509 -0.020178756 0)
(12.180341 -0.017657643 0)
(13.289589 -0.015178473 0)
(14.354078 -0.012802302 0)
(15.355825 -0.010525977 0)
(16.268548 -0.008315469 0)
(17.060142 -0.0062101713 0)
(17.702979 -0.0043486347 0)
(18.192893 -0.0028482255 0)
(18.539705 -0.0017430761 0)
(18.770652 -0.00097436816 0)
(18.903164 -0.00047471517 0)
(3.4548217 -0.0076936572 0)
(3.8300398 -0.031568119 0)
(4.6712155 -0.041601686 0)
(5.6728282 -0.039565426 0)
(6.7370307 -0.035584936 0)
(7.8381989 -0.031997559 0)
(8.964028 -0.028805564 0)
(10.112745 -0.025771182 0)
(11.264046 -0.022801957 0)
(12.410376 -0.019951239 0)
(13.531571 -0.017148159 0)
(14.607986 -0.014462144 0)
(15.621245 -0.011889848 0)
(16.544665 -0.0093927454 0)
(17.345681 -0.0070150347 0)
(17.996349 -0.0049128248 0)
(18.492421 -0.0032182731 0)
(18.843726 -0.001969868 0)
(19.077733 -0.0011012979 0)
(19.211994 -0.00053661425 0)
(3.8372963 -0.0084821544 0)
(4.1374703 -0.034881519 0)
(4.9164183 -0.046275631 0)
(5.8867859 -0.044292241 0)
(6.9404352 -0.040009073 0)
(8.0405612 -0.036042807 0)
(9.1704419 -0.032472249 0)
(10.326274 -0.029060891 0)
(11.486655 -0.025715709 0)
(12.64333 -0.022501106 0)
(13.775477 -0.019339185 0)
(14.862957 -0.016309229 0)
(15.886978 -0.013407989 0)
(16.820445 -0.010592127 0)
(17.630331 -0.0079113251 0)
(18.288396 -0.0055413069 0)
(18.790317 -0.0036306497 0)
(19.145907 -0.0022226914 0)
(19.382842 -0.0012428195 0)
(19.518764 -0.00060560957 0)
(4.2570804 -0.0091410587 0)
(4.4752697 -0.038057046 0)
(5.1850259 -0.051132919 0)
(6.1189842 -0.049376028 0)
(7.1583867 -0.044845239 0)
(8.2547601 -0.040496661 0)
(9.3864243 -0.036524495 0)
(10.547413 -0.032704732 0)
(11.715201 -0.028948019 0)
(12.880798 -0.025332639 0)
(14.022675 -0.021773908 0)
(15.120172 -0.018362719 0)
(16.154051 -0.015096324 0)
(17.096786 -0.011926286 0)
(17.914884 -0.0089085703 0)
(18.579828 -0.0062408224 0)
(19.087223 -0.0040898272 0)
(19.446849 -0.0025043133 0)
(19.686549 -0.0014004828 0)
(19.824023 -0.00068244061 0)
(4.71667 -0.0096339058 0)
(4.8506078 -0.040989782 0)
(5.4830821 -0.056123746 0)
(6.3741801 -0.054812937 0)
(7.3946239 -0.050113648 0)
(8.4839617 -0.04538833 0)
(9.6146921 -0.040993734 0)
(10.778491 -0.036733774 0)
(11.951677 -0.03252827 0)
(13.124475 -0.028472744 0)
(14.274606 -0.024476183 0)
(15.38086 -0.020643174 0)
(16.423512 -0.016972001 0)
(17.374586 -0.013408896 0)
(18.200113 -0.010017065 0)
(18.87132 -0.0070186652 0)
(19.383744 -0.0046006512 0)
(19.747101 -0.0028177345 0)
(19.989366 -0.0015759662 0)
(20.128259 -0.0007679012 0)
(5.2180106 -0.0099339391 0)
(5.2716146 -0.043568553 0)
(5.8174959 -0.061148727 0)
(6.6576933 -0.060585546 0)
(7.6533293 -0.055827886 0)
(8.73164 -0.050744878 0)
(9.8582215 -0.045911042 0)
(11.02207 -0.041179646 0)
(12.198277 -0.036486902 0)
(13.37623 -0.031949629 0)
(14.532852 -0.027471233 0)
(15.646353 -0.02317247 0)
(16.696485 -0.019053349 0)
(17.654793 -0.01505461 0)
(18.48682 -0.011247858 0)
(19.163555 -0.007882676 0)
(19.68047 -0.0051683385 0)
(20.047192 -0.0031661876 0)
(20.291775 -0.0017710736 0)
(20.431923 -0.00086283489 0)
(5.7625324 -0.010031334 0)
(5.7476318 -0.045685779 0)
(6.1962746 -0.066098268 0)
(6.9755853 -0.066650551 0)
(7.939347 -0.061991365 0)
(9.0017074 -0.056589219 0)
(10.120345 -0.051306031 0)
(11.281016 -0.046073823 0)
(12.457465 -0.040854936 0)
(13.638167 -0.035792467 0)
(14.799191 -0.030785418 0)
(15.918146 -0.025973648 0)
(16.974217 -0.021359776 0)
(17.938445 -0.016878995 0)
(18.775863 -0.012612708 0)
(19.457249 -0.0088412133 0)
(19.97801 -0.0057984598 0)
(20.347651 -0.0035531264 0)
(20.594252 -0.0019877255 0)
(20.73545 -0.00096812572 0)
(6.3514601 -0.0099468607 0)
(6.2896033 -0.047249719 0)
(6.6287542 -0.070859931 0)
(7.3349839 -0.072933497 0)
(8.2583604 -0.068592509 0)
(9.2986443 -0.062936857 0)
(10.404857 -0.057205268 0)
(11.558577 -0.051446573 0)
(12.732039 -0.045663271 0)
(13.912681 -0.040030909 0)
(15.075652 -0.034445875 0)
(16.19794 -0.029070656 0)
(17.258122 -0.023911585 0)
(18.226704 -0.018898398 0)
(19.068194 -0.01412399 0)
(19.753183 -0.0099030914 0)
(20.277014 -0.0064968999 0)
(20.649031 -0.0039821998 0)
(20.89728 -0.0022279408 0)
(21.039279 -0.001084683 0)
(6.9864044 -0.009756147 0)
(6.9102464 -0.048200564 0)
(7.1257541 -0.075227951 0)
(7.7443846 -0.079317922 0)
(8.6171484 -0.075597156 0)
(9.6276793 -0.069791983 0)
(10.716133 -0.063630017 0)
(11.858477 -0.057325451 0)
(13.025193 -0.050941673 0)
(14.202511 -0.044694367 0)
(15.364565 -0.038480001 0)
(16.487691 -0.032487957 0)
(17.549822 -0.026729684 0)
(18.5209 -0.021129732 0)
(19.364889 -0.015794536 0)
(20.052226 -0.011077472 0)
(20.578192 -0.0072697871 0)
(20.951929 -0.0044572065 0)
(21.201374 -0.002493806 0)
(21.343862 -0.0012134171 0)
(7.6700812 -0.0096168194 0)
(7.6224936 -0.048548185 0)
(7.6994615 -0.078791449 0)
(8.2140346 -0.085671621 0)
(9.0236879 -0.082940724 0)
(9.995139 -0.077140994 0)
(11.05927 -0.070592462 0)
(12.185018 -0.063733189 0)
(13.3406 -0.056717321 0)
(14.510804 -0.049810999 0)
(15.668606 -0.042914702 0)
(16.789655 -0.036249976 0)
(17.851189 -0.029835162 0)
(18.822561 -0.023590146 0)
(19.667178 -0.017637395 0)
(20.355364 -0.012373694 0)
(20.88234 -0.0081233813 0)
(21.256998 -0.0049820224 0)
(21.507085 -0.0027874263 0)
(21.649683 -0.0013552045 0)
(8.4073631 -0.0097473205 0)
(8.4310536 -0.048375063 0)
(8.3625914 -0.081091498 0)
(8.7564514 -0.091784605 0)
(9.4876315 -0.090515895 0)
(10.408641 -0.084944579 0)
(11.440285 -0.078090598 0)
(12.543207 -0.070684574 0)
(13.682502 -0.063012756 0)
(14.841175 -0.055406267 0)
(15.990852 -0.047775355 0)
(17.106426 -0.040380313 0)
(18.16438 -0.03324868 0)
(19.133449 -0.026296559 0)
(19.976476 -0.019665475 0)
(20.66372 -0.013801025 0)
(21.190355 -0.0090639061 0)
(21.564968 -0.0055604911 0)
(21.815022 -0.0031108536 0)
(21.957264 -0.0015108361 0)
(9.2067696 -0.010291241 0)
(9.3125421 -0.047409363 0)
(9.126902 -0.082033628 0)
(9.3871193 -0.097335224 0)
(10.020759 -0.098152479 0)
(10.877444 -0.093124888 0)
(11.866322 -0.086100732 0)
(12.938926 -0.07818213 0)
(14.055837 -0.069843044 0)
(15.1978 -0.06150091 0)
(16.334844 -0.053084342 0)
(17.440992 -0.044900656 0)
(18.491883 -0.036989638 0)
(19.455598 -0.029265 0)
(20.294408 -0.021891047 0)
(20.978583 -0.015368301 0)
(21.503259 -0.010097307 0)
(21.876661 -0.006196266 0)
(22.125862 -0.003465983 0)
(22.267179 -0.001680946 0)
(10.078461 -0.011216427 0)
(10.228172 -0.045591619 0)
(10.006059 -0.082973888 0)
(10.125171 -0.10155081 0)
(10.637431 -0.10555777 0)
(11.412659 -0.10155155 0)
(12.346117 -0.094566702 0)
(13.379143 -0.086209625 0)
(14.466372 -0.077211489 0)
(15.585525 -0.068108114 0)
(16.704661 -0.058859015 0)
(17.79678 -0.049829278 0)
(18.836551 -0.041075021 0)
(19.791341 -0.032509719 0)
(20.622843 -0.024325058 0)
(21.301428 -0.017083433 0)
(21.822214 -0.011228918 0)
(22.193005 -0.0068925895 0)
(22.44036 -0.0038544083 0)
(22.580064 -0.0018659127 0)
(11.028031 -0.012355291 0)
(11.16958 -0.050553668 0)
(11.038711 -0.079773581 0)
(10.988557 -0.1043945 0)
(11.354969 -0.11251848 0)
(12.027833 -0.11002739 0)
(12.8904 -0.10338482 0)
(13.872163 -0.094722251 0)
(14.920914 -0.085104148 0)
(16.009997 -0.075229569 0)
(17.105018 -0.065108857 0)
(18.177735 -0.055178968 0)
(19.201656 -0.045517836 0)
(20.143351 -0.036041963 0)
(20.963918 -0.026976201 0)
(21.633939 -0.01895274 0)
(22.148544 -0.012462998 0)
(22.515051 -0.0076519897 0)
(22.759366 -0.0042772235 0)
(22.896624 -0.0020657258 0)
(12.055597 -0.013464223 0)
(12.155776 -0.046863167 0)
(12.228701 -0.078161566 0)
(11.995282 -0.10588775 0)
(12.195217 -0.11800306 0)
(12.739715 -0.11824965 0)
(13.512276 -0.11238765 0)
(14.428018 -0.1036332 0)
(15.427539 -0.093481368 0)
(16.47783 -0.08284974 0)
(17.541393 -0.071831602 0)
(18.588396 -0.060954174 0)
(19.590945 -0.050324976 0)
(20.514678 -0.039868349 0)
(21.32007 -0.029849684 0)
(21.978034 -0.020980052 0)
(22.483752 -0.013802123 0)
(22.843983 -0.0084758724 0)
(23.083832 -0.0047347562 0)
(23.217644 -0.0022798076 0)
(13.15809 -0.014416393 0)
(13.221983 -0.050114797 0)
(13.441175 -0.077219811 0)
(13.155337 -0.10478152 0)
(13.184249 -0.12181165 0)
(13.568967 -0.12575303 0)
(14.227593 -0.12131858 0)
(15.059174 -0.11279425 0)
(15.995881 -0.1022651 0)
(16.996836 -0.0909284 0)
(18.02017 -0.079007739 0)
(19.034011 -0.067147092 0)
(20.008712 -0.055494307 0)
(20.908799 -0.043988654 0)
(21.694064 -0.03294557 0)
(22.335886 -0.023165527 0)
(22.829535 -0.015246368 0)
(23.181138 -0.0093639805 0)
(23.414821 -0.0052262138 0)
(23.543997 -0.0025067776 0)
(14.333831 -0.01532204 0)
(14.394603 -0.0529544 0)
(14.617375 -0.082839403 0)
(14.519702 -0.099069017 0)
(14.339848 -0.12366346 0)
(14.540431 -0.13168658 0)
(15.056067 -0.12979182 0)
(15.781026 -0.1219721 0)
(16.637485 -0.11132206 0)
(17.576276 -0.099389633 0)
(18.54883 -0.086593049 0)
(19.520668 -0.073732346 0)
(20.459892 -0.061010709 0)
(21.329676 -0.048392859 0)
(22.089033 -0.036256593 0)
(22.709946 -0.025504094 0)
(23.187806 -0.016792241 0)
(23.528016 -0.010313684 0)
(23.753526 -0.0057492181 0)
(23.87665 -0.0027441397 0)
(15.586835 -0.016350669 0)
(15.658609 -0.056275611 0)
(15.794469 -0.080673746 0)
(15.99534 -0.097879559 0)
(15.684966 -0.12226176 0)
(15.687451 -0.13547873 0)
(16.022225 -0.13715625 0)
(16.612 -0.13081839 0)
(17.366834 -0.12043753 0)
(18.227172 -0.10810572 0)
(19.136182 -0.094508395 0)
(20.055439 -0.080659545 0)
(20.950164 -0.066840716 0)
(21.781823 -0.053057156 0)
(22.508518 -0.039765248 0)
(23.102975 -0.027983409 0)
(23.56071 -0.018431297 0)
(23.88629 -0.011319053 0)
(24.101269 -0.0062991985 0)
(24.216674 -0.0029878861 0)
(16.920814 -0.017508114 0)
(16.990254 -0.05835495 0)
(17.105552 -0.086564581 0)
(17.388506 -0.10309072 0)
(17.25106 -0.11618564 0)
(17.025039 -0.13652181 0)
(17.15572 -0.142519 0)
(17.574972 -0.13881394 0)
(18.201729 -0.12928686 0)
(18.962814 -0.11687378 0)
(19.79263 -0.1026249 0)
(20.64658 -0.087843457 0)
(21.486074 -0.072925319 0)
(22.270384 -0.0579386 0)
(22.956518 -0.04343995 0)
(23.518066 -0.03058119 0)
(23.950642 -0.020148334 0)
(24.257829 -0.012369667 0)
(24.45952 -0.0068686023 0)
(24.56525 -0.0032320513 0)
(18.332592 -0.018711389 0)
(18.394075 -0.060959742 0)
(18.518275 -0.091474388 0)
(18.700866 -0.1034693 0)
(18.920098 -0.11390345 0)
(18.59356 -0.13289896 0)
(18.490212 -0.14520809 0)
(18.697935 -0.14503956 0)
(19.163533 -0.1373909 0)
(19.799842 -0.12537702 0)
(20.530478 -0.11074209 0)
(21.303744 -0.09515028 0)
(22.075168 -0.0791701 0)
(22.80122 -0.062968039 0)
(23.437535 -0.047229957 0)
(23.95868 -0.033261743 0)
(24.36027 -0.021919064 0)
(24.644703 -0.01344907 0)
(24.829904 -0.0074458961 0)
(24.923679 -0.0034681927 0)
(19.816513 -0.019935053 0)
(19.872895 -0.063780394 0)
(19.990325 -0.095362728 0)
(20.142812 -0.11001263 0)
(20.476105 -0.11908032 0)
(20.37654 -0.1263158 0)
(20.046447 -0.14342356 0)
(20.015617 -0.1485622 0)
(20.278846 -0.14402291 0)
(20.758522 -0.13314517 0)
(21.364498 -0.11855644 0)
(22.038202 -0.10237738 0)
(22.726134 -0.085431901 0)
(23.380989 -0.068041045 0)
(23.956623 -0.051058772 0)
(24.428667 -0.035971463 0)
(24.792548 -0.023707122 0)
(25.049197 -0.014532844 0)
(25.214206 -0.0080143944 0)
(25.293382 -0.0036841105 0)
(21.365493 -0.021161111 0)
(21.417744 -0.066552741 0)
(21.520949 -0.099641297 0)
(21.681964 -0.11647779 0)
(21.886301 -0.1217716 0)
(22.167314 -0.12585536 0)
(21.877167 -0.13615534 0)
(21.54597 -0.14823269 0)
(21.5802 -0.14811417 0)
(21.86292 -0.13959371 0)
(22.313108 -0.12561059 0)
(22.863076 -0.10922569 0)
(23.448942 -0.091499613 0)
(24.017202 -0.073005565 0)
(24.519409 -0.054815673 0)
(24.932283 -0.038633143 0)
(25.250725 -0.025460367 0)
(25.473823 -0.015586217 0)
(25.614383 -0.0085508517 0)
(25.675917 -0.0038606123 0)
(22.968623 -0.022452184 0)
(23.015515 -0.069264345 0)
(23.108397 -0.10417232 0)
(23.254984 -0.12153931 0)
(23.432836 -0.12923673 0)
(23.775052 -0.12977499 0)
(23.801051 -0.13118034 0)
(23.352401 -0.1412825 0)
(23.092386 -0.14854109 0)
(23.141479 -0.14368641 0)
(23.397592 -0.13128068 0)
(23.794452 -0.11524862 0)
(24.25491 -0.097069722 0)
(24.718235 -0.077640708 0)
(25.132088 -0.058344477 0)
(25.474173 -0.041139132 0)
(25.738342 -0.027106624 0)
(25.92131 -0.01656092 0)
(26.032565 -0.0090225934 0)
(26.072976 -0.0039742976 0)
(24.609634 -0.023719964 0)
(24.650716 -0.071951844 0)
(24.733362 -0.1084592 0)
(24.859351 -0.12722862 0)
(25.041281 -0.13599568 0)
(25.239618 -0.13593305 0)
(25.561721 -0.13026492 0)
(25.372609 -0.13274435 0)
(24.86526 -0.14252197 0)
(24.617279 -0.14380071 0)
(24.64238 -0.13483314 0)
(24.85139 -0.11983976 0)
(25.156906 -0.10172781 0)
(25.493257 -0.081621191 0)
(25.801326 -0.061427076 0)
(26.059315 -0.043342551 0)
(26.259191 -0.028547971 0)
(26.394592 -0.017390229 0)
(26.47104 -0.0093806703 0)
(26.486545 -0.004022786 0)
(26.266133 -0.024917674 0)
(26.301292 -0.074542787 0)
(26.371759 -0.11264243 0)
(26.481912 -0.1327906 0)
(26.635733 -0.14206985 0)
(26.828776 -0.14236476 0)
(27.046809 -0.13634902 0)
(27.265312 -0.12880759 0)
(26.884306 -0.13211632 0)
(26.330487 -0.13814932 0)
(26.06391 -0.13437204 0)
(26.054508 -0.12238819 0)
(26.1701 -0.10487563 0)
(26.351906 -0.084527738 0)
(26.534032 -0.063762778 0)
(26.692865 -0.045041945 0)
(26.817224 -0.029648502 0)
(26.896751 -0.017981878 0)
(26.93224 -0.0095625727 0)
(26.918842 -0.0039404347 0)
(27.908034 -0.025975822 0)
(27.936845 -0.07676082 0)
(27.99462 -0.11663727 0)
(28.086437 -0.13802862 0)
(28.215177 -0.14815295 0)
(28.388701 -0.14853065 0)
(28.553095 -0.14219393 0)
(28.843139 -0.13098914 0)
(28.856416 -0.12460144 0)
(28.292217 -0.12629323 0)
(27.698911 -0.12873792 0)
(27.413793 -0.12108066 0)
(27.308541 -0.10547512 0)
(27.304974 -0.086071677 0)
(27.336851 -0.064995208 0)
(27.379854 -0.045951536 0)
(27.416381 -0.030206662 0)
(27.430919 -0.018240809 0)
(27.418998 -0.0095624355 0)
(27.371605 -0.003636463 0)
(29.495456 -0.027053793 0)
(29.517867 -0.078643798 0)
(29.561889 -0.11994442 0)
(29.633241 -0.14295014 0)
(29.738582 -0.15367685 0)
(29.869114 -0.1544428 0)
(30.034102 -0.14769724 0)
(30.179063 -0.13809717 0)
(30.41413 -0.12146295 0)
(30.272711 -0.11452534 0)
(29.565035 -0.11620605 0)
(28.953634 -0.11471592 0)
(28.580373 -0.10298659 0)
(28.357276 -0.084737999 0)
(28.215916 -0.064551396 0)
(28.124769 -0.045823879 0)
(28.060316 -0.030113178 0)
(28.00048 -0.017999686 0)
(27.933615 -0.0091399552 0)
(27.846674 -0.0031285076 0)
(30.976312 -0.027691313 0)
(30.992159 -0.080845661 0)
(31.02136 -0.12190556 0)
(31.07121 -0.14688977 0)
(31.147974 -0.15811555 0)
(31.248754 -0.15954676 0)
(31.363309 -0.15345772 0)
(31.500813 -0.1411387 0)
(31.619081 -0.12792435 0)
(31.776545 -0.11067114 0)
(31.461738 -0.10146732 0)
(30.668399 -0.10122192 0)
(29.987562 -0.095052901 0)
(29.511265 -0.080354327 0)
(29.172554 -0.061855721 0)
(28.929985 -0.044110275 0)
(28.751643 -0.028929039 0)
(28.607602 -0.017079231 0)
(28.478452 -0.0083077047 0)
(28.346113 -0.0022858138 0)
(32.283725 -0.0286785 0)
(32.291009 -0.081332797 0)
(32.306897 -0.12466936 0)
(32.332866 -0.14849946 0)
(32.379876 -0.16327209 0)
(32.444787 -0.1634072 0)
(32.522025 -0.15689491 0)
(32.607905 -0.14524578 0)
(32.695498 -0.12971633 0)
(32.782101 -0.11117907 0)
(32.856059 -0.095394909 0)
(32.372803 -0.084802027 0)
(31.501129 -0.080643975 0)
(30.754841 -0.071175938 0)
(30.201822 -0.056115622 0)
(29.7943 -0.040396226 0)
(29.491048 -0.026423675 0)
(29.253803 -0.015262839 0)
(29.055082 -0.00685303 0)
(28.871654 -0.0010062019 0)