/*--------------------------------*- C++ -*----------------------------------*\
| =========                 |                                                 |
| \\      /  F ield         | OpenFOAM: The Open Source CFD Toolbox           |
|  \\    /   O peration     | Version:  2406                                  |
|   \\  /    A nd           | Website:  www.openfoam.com                      |
|    \\/     M anipulation  |                                                 |
\*---------------------------------------------------------------------------*/
FoamFile
{
    version     2.0;
    format      ascii;
    arch        "LSB;label=32;scalar=64";
    class       volVectorField;
    location    "2406";
    object      wallShearStress;
}
// * * * * * * * * * * * * * * * * * * * * * * * * * * * * * * * * * * * * * //

dimensions      [0 2 -2 0 0 0 0];

internalField   uniform (0 0 0);

boundaryField
{
    inlet
    {
        type            calculated;
        value           uniform (0 0 0);
    }
    topWall
    {
        type            symmetry;
    }
    jet
    {
        type            calculated;
        value           uniform (0 0 0);
    }
    outlet
    {
        type            calculated;
        value           uniform (0 0 0);
    }
    bottomWall
    {
        type            calculated;
        value           nonuniform List<vector> 
380
(
(-0.046635 -1.361791e-06 0)
(-0.056690639 5.7680303e-06 0)
(-0.098135413 1.0258265e-05 0)
(-0.15865165 1.1692329e-05 0)
(-0.22812337 1.1667459e-05 0)
(-0.30490366 1.1419289e-05 0)
(-0.38969271 1.1165551e-05 0)
(-0.48319405 1.0790138e-05 0)
(-0.58405858 1.0255307e-05 0)
(-0.69165051 9.5806824e-06 0)
(-0.80373749 8.7383365e-06 0)
(-0.9176866 7.7735982e-06 0)
(-1.0305283 6.6942298e-06 0)
(-1.1378917 5.4983179e-06 0)
(-1.2343456 4.2364776e-06 0)
(-1.3147929 3.0368337e-06 0)
(-1.3772742 2.0237118e-06 0)
(-1.4220677 1.252848e-06 0)
(-1.4521208 7.0710558e-07 0)
(-1.4694048 3.4060449e-07 -0)
(-1.4768796 1.0997332e-07 2.6473958e-26)
(-1.4788058 -4.0188267e-08 2.6884382e-26)
(-1.4786244 -1.5416957e-07 5.5181967e-26)
(-1.4769833 -2.4327275e-07 -1.1523261e-25)
(-1.4742928 -3.1685366e-07 -0)
(-1.4710217 -3.7592554e-07 0)
(-1.4674753 -4.2018932e-07 0)
(-1.4638435 -4.6160641e-07 -2.5443538e-25)
(-1.4602384 -4.9441979e-07 2.6329895e-25)
(-1.4567214 -5.3462552e-07 2.6886036e-25)
(-1.4533307 -5.4069405e-07 -5.547027e-25)
(-1.4500913 -5.8960342e-07 5.704692e-25)
(-1.4470204 -5.9044923e-07 -2.942676e-25)
(-1.4441152 -6.1932558e-07 -0)
(-1.4413699 -6.3975678e-07 0)
(-1.4387865 -6.5599277e-07 -6.3765499e-25)
(-1.4363664 -6.7285897e-07 6.5986836e-25)
(-1.4340954 -6.8668341e-07 6.7590278e-25)
(-1.4319597 -6.9860345e-07 -6.9944853e-25)
(-1.4299533 -7.0780312e-07 -0)
(-1.4280707 -7.1705224e-07 -0)
(-1.4263022 -7.3914163e-07 7.6106514e-25)
(-1.4246454 -7.220003e-07 -7.8757755e-25)
(-1.4230873 -7.543581e-07 0)
(-1.4216211 -7.3225349e-07 -8.3338486e-25)
(-1.4202364 -7.4222462e-07 8.6241651e-25)
(-1.4189296 -7.4193199e-07 0)
(-1.4176931 -7.3816725e-07 0)
(-1.4165211 -7.3091698e-07 0)
(-1.4154065 -7.2041653e-07 0)
(-1.4143477 -7.0818974e-07 0)
(-1.4133369 -7.0416969e-07 0)
(-1.4123689 -6.6194986e-07 -1.0703675e-24)
(-1.4114378 -6.5319471e-07 1.1076544e-24)
(-1.4105404 -6.0328039e-07 -1.1417566e-24)
(-1.4096717 -5.7680697e-07 1.1815303e-24)
(-1.4088275 -5.3491456e-07 0)
(-1.4080038 -4.8724933e-07 0)
(-1.407198 -4.3361004e-07 0)
(-1.4064064 -3.652441e-07 0)
(-1.4056262 -2.9351549e-07 0)
(-1.4048545 -2.0267378e-07 0)
(-1.404088 -1.0837088e-07 0)
(-1.4033253 -1.5911885e-08 0)
(-1.4025647 1.0574107e-07 0)
(-1.4018031 2.1364565e-07 0)
(-1.401039 3.5542565e-07 3.429255e-24)
(-1.4002703 4.9109816e-07 -3.5487137e-24)
(-1.3995149 6.386076e-07 3.86405e-24)
(-1.3987661 7.9011892e-07 -3.9204825e-24)
(-1.3979959 9.5400855e-07 0)
(-1.3972021 1.1333643e-06 0)
(-1.3963835 1.3275537e-06 0)
(-1.3955372 1.5340088e-06 0)
(-1.3946611 1.7547913e-06 0)
(-1.3937528 1.9894811e-06 0)
(-1.3928116 2.2427051e-06 -4.4266528e-24)
(-1.3918346 2.5091698e-06 4.4913018e-24)
(-1.3908195 2.8047069e-06 0)
(-1.389764 3.1089918e-06 0)
(-1.3886649 3.4447895e-06 0)
(-1.3875209 3.7902957e-06 0)
(-1.3863297 4.1694151e-06 0)
(-1.3850876 4.5592235e-06 0)
(-1.3837938 4.988489e-06 0)
(-1.3824453 5.4348122e-06 0)
(-1.3810395 5.9156896e-06 -5.3974018e-24)
(-1.3795731 6.4143444e-06 5.4762278e-24)
(-1.3780437 6.9514348e-06 0)
(-1.3764494 7.5137913e-06 5.7696116e-24)
(-1.3747879 8.1098728e-06 -5.8538733e-24)
(-1.3730558 8.7406091e-06 0)
(-1.3712501 9.4082498e-06 0)
(-1.369368 1.0111198e-05 0)
(-1.367407 1.0851988e-05 0)
(-1.3653639 1.16334e-05 0)
(-1.363236 1.2455191e-05 0)
(-1.3610202 1.3320489e-05 0)
(-1.3587136 1.4229305e-05 0)
(-1.3563131 1.5184969e-05 0)
(-1.3538156 1.6188197e-05 0)
(-1.351218 1.7242322e-05 0)
(-1.3485171 1.834606e-05 0)
(-1.3457098 1.9510131e-05 0)
(-1.3427925 2.072302e-05 0)
(-1.3397623 2.2000506e-05 0)
(-1.3366154 2.3331242e-05 0)
(-1.3333488 2.4731414e-05 0)
(-1.3299587 2.6188281e-05 0)
(-1.3264417 2.7719582e-05 0)
(-1.3227941 2.9313455e-05 0)
(-1.3190126 3.0987334e-05 0)
(-1.3150931 3.2726628e-05 0)
(-1.3110322 3.4550711e-05 0)
(-1.3068257 3.644427e-05 0)
(-1.3024702 3.8432652e-05 0)
(-1.2979615 4.0499645e-05 0)
(-1.2932957 4.2655518e-05 0)
(-1.2884686 4.4902899e-05 0)
(-1.2834758 4.724454e-05 0)
(-1.2783134 4.9683965e-05 0)
(-1.2729768 5.2224146e-05 0)
(-1.2674617 5.4872713e-05 0)
(-1.2617636 5.7628123e-05 -1.5654413e-23)
(-1.2558776 6.0493617e-05 1.5883037e-23)
(-1.2497993 6.3472397e-05 0)
(-1.2435239 6.6573102e-05 -1.7394699e-23)
(-1.2370466 6.9797695e-05 3.5672777e-23)
(-1.2303623 7.3147589e-05 -3.6966876e-23)
(-1.2234662 7.6630913e-05 3.8314841e-23)
(-1.2163528 8.0240854e-05 4.283414e-25)
(-1.2090175 8.4011656e-05 -2.0366714e-23)
(-1.201454 8.7893874e-05 0)
(-1.193658 9.1959375e-05 2.2387776e-23)
(-1.1856229 9.6146102e-05 -4.5938084e-23)
(-1.1773442 0.0001005277 2.3562512e-23)
(-1.1688148 0.00010502791 0)
(-1.1600301 0.00010973786 0)
(-1.1509828 0.00011456957 2.6919722e-23)
(-1.1416681 0.00011963522 -2.7312878e-23)
(-1.1320786 0.00012483655 -2.8999335e-23)
(-1.1222091 0.00013027746 2.9422865e-23)
(-1.1120516 0.00013586439 0)
(-1.1016003 0.00014166714 3.2441011e-23)
(-1.0908483 0.00014768306 7.6569927e-25)
(-1.0797884 0.0001538974 -3.4172412e-23)
(-1.0684136 0.00016033785 0)
(-1.0567162 0.00016699253 0)
(-1.0446891 0.00017388079 0)
(-1.032324 0.00018099503 0)
(-1.0196134 0.00018836773 0)
(-1.0065488 0.00019597181 -4.3828561e-23)
(-0.99312203 0.00020384181 -1.0428133e-24)
(-0.97932404 0.00021195922 4.6176215e-23)
(-0.96514615 0.00022035289 4.9073086e-23)
(-0.95057875 0.00022900627 1.1664063e-24)
(-0.93561193 0.00023791348 -5.1700471e-23)
(-0.92023757 0.00024723885 -5.4938953e-23)
(-0.90444192 0.00025666724 5.5741373e-23)
(-0.88821826 0.00026660073 0)
(-0.87155081 0.00027662716 0)
(-0.85443255 0.00028719162 0)
(-0.83684627 0.00029785236 -6.6275987e-23)
(-0.81878436 0.0003090861 6.7244018e-23)
(-0.80022781 0.00032039047 -7.1419607e-23)
(-0.78116813 0.00033230743 7.246278e-23)
(-0.7615844 0.00034427703 0)
(-0.74146722 0.0003569397 0)
(-0.72079461 0.000369718 0)
(-0.69955141 0.00038287494 -8.6007684e-23)
(-0.67771983 0.00039644102 1.7651118e-22)
(-0.6552777 0.00041036643 -1.8315263e-22)
(-0.63220915 0.00042463755 9.3954448e-23)
(-0.60848217 0.00043925627 -9.9669954e-23)
(-0.58409318 0.00045418731 -2.2643268e-24)
(-0.55897574 0.00046957088 -2.3394693e-24)
(-0.5331866 0.00048496813 -2.4143066e-24)
(-0.50651784 0.00050133703 1.1284548e-22)
(-0.47927759 0.00051662871 0)
(-0.45069196 0.00053398043 1.2400148e-22)
(-0.42693203 0.00054116344 -2.1964261e-22)
(-0.40943129 0.00052903918 0)
(-0.39122397 0.00051673061 -2.2794493e-22)
(-0.37211771 0.0005089181 2.27946e-22)
(-0.35277255 0.00049894798 2.3368935e-22)
(-0.33298036 0.00048919985 -2.3369051e-22)
(-0.31278436 0.00047816669 0)
(-0.29212051 0.00046713762 0)
(-0.27105436 0.00045450857 0)
(-0.24940155 0.0004422308 0)
(-0.22748074 0.00042750966 0)
(-0.20459127 0.00041451922 0)
(-0.18207989 0.00039612985 0)
(-0.15711243 0.00038480038 0)
(-0.13545669 0.00035838308 0)
(-0.10602491 0.00035268705 0)
(-0.088833767 0.00031341342 -1.3576051e-22)
(-0.05014719 0.00031527478 1.3576127e-22)
(-0.044593364 0.00024625224 0)
(0.019600557 0.0002954555 0)
(0.69277677 -0.00065793487 -0)
(0.69932703 -0.00074666863 0)
(0.69882181 -0.00077037604 0)
(0.6977799 -0.0007943985 0)
(0.69437783 -0.0008080596 0)
(0.69098924 -0.00082249906 0)
(0.68621919 -0.00083161729 0)
(0.68134937 -0.00084047343 0)
(0.67547531 -0.00084725364 0)
(0.66940673 -0.00085355439 0)
(0.66247488 -0.00085864 0)
(0.65530277 -0.00086256483 0)
(0.64730958 -0.00086601863 0)
(0.63903432 -0.00086762776 0)
(0.62991155 -0.00086950423 0)
(0.62041818 -0.00086929424 0)
(0.61005777 -0.00086888265 0)
(0.59924814 -0.00086732039 0)
(0.58762495 -0.00086438997 0)
(0.57556455 -0.00086026754 0)
(0.56348488 -0.00085493643 0)
(0.5518232 -0.00084872069 0)
(0.5398573 -0.0008414994 -0)
(0.52777589 -0.00083322003 1.2285894e-22)
(0.51548339 -0.00082427717 -1.2164938e-22)
(0.5031204 -0.00081444159 -0)
(0.49055268 -0.00080379846 0)
(0.47786552 -0.0007926005 0)
(0.46502125 -0.00078066664 0)
(0.45211057 -0.00076805317 0)
(0.43908705 -0.00075467785 0)
(0.42595127 -0.00074054304 0)
(0.41269617 -0.00072569249 0)
(0.39939082 -0.00071049562 0)
(0.38601554 -0.00069479564 0)
(0.37255866 -0.00067801445 0)
(0.35900563 -0.00066137272 0)
(0.34539585 -0.0006439372 0)
(0.33172838 -0.00062649457 0)
(0.31800079 -0.00060837394 0)
(0.30418932 -0.00059015023 0)
(0.29032237 -0.00057151271 0)
(0.27641328 -0.00055299766 0)
(0.26246299 -0.0005339328 0)
(0.24847638 -0.00051491409 0)
(0.23448938 -0.00049561955 0)
(0.22051598 -0.00047642373 0)
(0.20653554 -0.00045723362 0)
(0.19256538 -0.00043805952 0)
(0.1786212 -0.00041905958 0)
(0.16470486 -0.00040009249 0)
(0.15083164 -0.00038145213 0)
(0.13701216 -0.00036283969 0)
(0.12326836 -0.00034452337 0)
(0.10961651 -0.00032650938 0)
(0.096043525 -0.00030870735 0)
(0.082569539 -0.00029116711 0)
(0.069215633 -0.00027411355 0)
(0.055984748 -0.00025738124 0)
(0.04287769 -0.00024113699 0)
(0.029901919 -0.00022527299 -2.9361577e-23)
(0.01705986 -0.00020981333 2.9072451e-23)
(0.0043632708 -0.00019475513 0)
(-0.0081722711 -0.0001798776 0)
(-0.02055098 -0.00016596773 0)
(-0.032766231 -0.00015262884 0)
(-0.044798544 -0.00013943057 -0)
(-0.056644943 -0.00012680001 3.5840632e-23)
(-0.068300769 -0.00011464389 -3.5487601e-23)
(-0.079777812 -0.00010298348 -0)
(-0.091064678 -9.1797382e-05 0)
(-0.10215594 -8.1215051e-05 0)
(-0.11306954 -7.086814e-05 0)
(-0.12380351 -6.1492284e-05 0)
(-0.13436537 -5.1681409e-05 -0)
(-0.14476194 -4.3235563e-05 3.7765514e-23)
(-0.15500091 -3.4395953e-05 -3.7393537e-23)
(-0.16508964 -2.687787e-05 -0)
(-0.17508516 -1.8915973e-05 0)
(-0.18497926 -1.230424e-05 0)
(-0.19484307 -5.3062666e-06 0)
(-0.20471647 3.0811518e-07 0)
(-0.21461942 6.4347204e-06 0)
(-0.22460705 1.1555161e-05 0)
(-0.23477608 1.7414353e-05 0)
(-0.24518189 2.1772458e-05 0)
(-0.25583704 2.6450517e-05 0)
(-0.26667613 2.9990491e-05 0)
(-0.27765567 3.3731005e-05 0)
(-0.2887267 3.6343487e-05 0)
(-0.29985986 3.9326966e-05 0)
(-0.31101505 4.1790416e-05 0)
(-0.32217061 4.4006616e-05 0)
(-0.33330576 4.5917085e-05 0)
(-0.34441613 4.7661322e-05 0)
(-0.35548012 4.9237861e-05 0)
(-0.36649555 5.0707779e-05 0)
(-0.37746319 5.1933606e-05 0)
(-0.38838087 5.3040572e-05 0)
(-0.39923562 5.3924167e-05 0)
(-0.41002043 5.4677048e-05 0)
(-0.42072213 5.5203535e-05 0)
(-0.43134436 5.5609466e-05 0)
(-0.44187208 5.5804224e-05 0)
(-0.45230937 5.5893916e-05 -2.348868e-23)
(-0.46265618 5.5834566e-05 2.3257333e-23)
(-0.4729188 5.5729286e-05 0)
(-0.48308768 5.553143e-05 0)
(-0.49316285 5.5190835e-05 0)
(-0.5031314 5.4792457e-05 0)
(-0.5130018 5.4402057e-05 0)
(-0.52275578 5.3624773e-05 0)
(-0.53240729 5.3106919e-05 -9.3228708e-24)
(-0.54194456 5.2192416e-05 9.2310502e-24)
(-0.55138684 5.1604121e-05 0)
(-0.56071435 5.0608294e-05 0)
(-0.56994275 4.9912589e-05 0)
(-0.5790509 4.8872497e-05 0)
(-0.58805403 4.8065904e-05 -7.7001394e-24)
(-0.5969282 4.6942706e-05 7.6243014e-24)
(-0.6057006 4.6078079e-05 0)
(-0.61434917 4.4938373e-05 -6.9628952e-24)
(-0.62290018 4.4039305e-05 6.8943183e-24)
(-0.63132614 4.2901558e-05 -6.4998058e-24)
(-0.63965188 4.1968208e-05 1.5903301e-25)
(-0.6478483 4.08203e-05 6.2149378e-24)
(-0.65593915 3.9848435e-05 0)
(-0.66390336 3.8704803e-05 0)
(-0.67176796 3.7696211e-05 0)
(-0.67951321 3.6678012e-05 0)
(-0.68716294 3.5688274e-05 0)
(-0.6946932 3.4658215e-05 0)
(-0.70366973 3.3265484e-05 0)
(-0.71410054 3.1662169e-05 0)
(-0.72466862 3.0089866e-05 0)
(-0.73534602 2.8504803e-05 0)
(-0.7461479 2.7029689e-05 0)
(-0.75703746 2.542191e-05 0)
(-0.76799902 2.4003697e-05 0)
(-0.77900216 2.2432024e-05 1.6697867e-24)
(-0.79002087 2.0981248e-05 -1.5899544e-24)
(-0.80104201 1.9512498e-05 -1.3532606e-24)
(-0.81202771 1.8087877e-05 1.2885614e-24)
(-0.82297672 1.6675695e-05 0)
(-0.83384498 1.5333375e-05 0)
(-0.8446417 1.3998203e-05 0)
(-0.85531282 1.2750558e-05 0)
(-0.86587962 1.1541804e-05 0)
(-0.87627961 1.0407622e-05 0)
(-0.886546 9.3361741e-06 5.3736386e-25)
(-0.89660409 8.3273074e-06 -5.1167248e-25)
(-0.90650558 7.406143e-06 0)
(-0.91616023 6.5416091e-06 0)
(-0.92564173 5.821683e-06 0)
(-0.93484263 5.0873088e-06 -2.8843322e-25)
(-0.94386352 4.5163354e-06 2.7464323e-25)
(-0.95257384 3.9137846e-06 0)
(-0.9611026 3.4067205e-06 0)
(-0.96929548 2.9561937e-06 0)
(-0.97731477 2.5488084e-06 0)
(-0.98497387 2.1916666e-06 0)
(-0.99248158 1.8353168e-06 0)
(-0.99960853 1.6731526e-06 0)
(-1.0066141 1.401437e-06 0)
(-1.0132179 1.2181141e-06 0)
(-1.0197487 1.0587224e-06 7.9024077e-26)
(-1.0258555 9.3191572e-07 -7.5245921e-26)
(-1.0319474 7.5573864e-07 0)
(-1.0375937 7.8940838e-07 0)
(-1.0433114 5.7481456e-07 0)
(-1.0485689 6.6857778e-07 0)
(-1.0540017 5.3331791e-07 0)
(-1.0589361 5.0584325e-07 0)
(-1.0641805 4.4260429e-07 -1.4244314e-26)
(-1.0688882 4.2155179e-07 1.3563289e-26)
(-1.0741049 2.8587449e-07 0)
(-1.0786469 3.8259957e-07 0)
(-1.0844089 2.3801329e-07 0)
(-1.0883138 3.3068239e-07 0)
(-1.0967275 9.9530187e-08 0)
)
;
    }
    hump
    {
        type            calculated;
        value           nonuniform List<vector> 
320
(
(-0.0063710337 -0.00048495242 -2.1864053e-17)
(-0.093014408 -0.01469278 -4.2187709e-17)
(-0.082953593 -0.017841052 -8.2981235e-17)
(-0.13886339 -0.037961389 1.6092421e-16)
(-0.18138607 -0.060566116 -7.4328525e-23)
(-0.24395779 -0.095531897 1.6455464e-22)
(-0.31271524 -0.1395998 -7.2246999e-17)
(-0.39765889 -0.19763713 6.616483e-23)
(-0.49832138 -0.26947931 -1.2940839e-16)
(-0.61539671 -0.35536207 2.7843505e-23)
(-0.7565468 -0.45951162 1.0978807e-16)
(-0.92450171 -0.57975519 -1.2037062e-35)
(-1.1118115 -0.70685733 -8.4059446e-17)
(-1.3228787 -0.84208645 6.9186127e-17)
(-1.5567138 -0.97452376 5.2608228e-17)
(-1.8032078 -1.0927592 -3.5154126e-17)
(-2.0571077 -1.1943686 -3.0335688e-24)
(-2.2461738 -1.1856254 7.32865e-18)
(-2.3283683 -1.1383425 -2.6231298e-17)
(-2.4437494 -1.1280219 5.3558547e-25)
(-2.551451 -1.1086002 5.7289231e-25)
(-2.6269316 -1.0756579 -8.3703687e-17)
(-2.6939882 -1.0562373 2.0109153e-21)
(-2.8621232 -1.0933958 1.8826277e-39)
(-3.0251505 -1.0763491 8.5234159e-24)
(-3.0533376 -1.0042932 -1.4618666e-16)
(-3.0985977 -0.95249386 1.9139374e-23)
(-3.1386164 -0.89389979 -9.7384838e-22)
(-3.153087 -0.83316561 -1.9281807e-23)
(-3.1583911 -0.77329256 1.6927751e-16)
(-3.1577661 -0.71911733 1.7017585e-16)
(-3.1612554 -0.67123005 1.9986943e-23)
(-3.1656835 -0.6262675 -1.703498e-16)
(-3.170299 -0.58412184 1.5071248e-32)
(-3.175602 -0.5440873 -1.6866713e-16)
(-3.1860167 -0.50799879 1.6735011e-16)
(-3.22303 -0.48126511 -1.0488831e-16)
(-3.2422781 -0.45295311 -1.1118788e-16)
(-3.2575112 -0.42674392 5.5443078e-23)
(-3.2723053 -0.39991313 -1.2373365e-16)
(-3.2819793 -0.37401838 -6.5069255e-17)
(-3.2944059 -0.34953195 -6.8381375e-17)
(-3.2992818 -0.3231962 -1.4370963e-16)
(-3.3044719 -0.30012378 7.2846897e-23)
(-3.311585 -0.27645189 3.9419238e-17)
(-3.3086854 -0.25231749 9.4603785e-35)
(-3.3139888 -0.23181766 -4.3015897e-17)
(-3.3179041 -0.20892417 4.5048903e-17)
(-3.3054658 -0.18506246 1.880791e-37)
(-3.303085 -0.16637958 2.4418549e-17)
(-3.3117817 -0.1472053 2.5477849e-17)
(-3.3039012 -0.12420031 -2.6435781e-17)
(-3.2853111 -0.10265978 2.8350179e-25)
(-3.2740647 -0.083798237 -1.4314432e-17)
(-3.2654121 -0.065664256 2.2719519e-22)
(-3.256154 -0.04798126 -7.7394122e-18)
(-3.246533 -0.030581588 4.0182476e-18)
(-3.2360921 -0.013399071 2.0850454e-18)
(-3.2241486 0.0036999346 -1.3929143e-25)
(-3.2088885 0.020686228 -2.2439388e-18)
(-3.1912757 0.036857969 -2.8360544e-22)
(-3.1759675 0.051740401 4.8146425e-18)
(-3.1661455 0.065848892 8.5989763e-34)
(-3.1570181 0.08056432 -2.068255e-17)
(-3.1415843 0.096086767 1.0718531e-17)
(-3.1187913 0.11141833 -1.109329e-17)
(-3.0949589 0.12540729 -3.4929171e-22)
(-3.0760949 0.13809752 3.6214502e-22)
(-3.0630409 0.15019229 -1.2249809e-17)
(-3.0511896 0.16275852 1.2676548e-17)
(-3.0357861 0.17597641 1.3118024e-17)
(-3.0140468 0.18953268 8.278343e-22)
(-2.9874982 0.20263247 -4.2846792e-22)
(-2.9594794 0.21498306 4.4020138e-22)
(-2.9319653 0.22648474 -4.563824e-22)
(-2.9054024 0.23740431 -1.5381058e-17)
(-2.8785167 0.24779064 -4.852685e-22)
(-2.8519046 0.25769746 4.9725172e-22)
(-2.8248759 0.2672728 -5.1553894e-22)
(-2.7971534 0.27632843 2.907533e-23)
(-2.7702 0.2850612 -5.4364908e-22)
(-2.7422204 0.2934482 1.8410116e-17)
(-2.7141756 0.30134503 3.7909192e-17)
(-2.6865496 0.30900705 -5.9338109e-22)
(-2.6584431 0.31624873 2.0089339e-17)
(-2.6309424 0.32313999 -2.0676428e-17)
(-2.6055919 0.33000417 -2.1278208e-17)
(-2.5787053 0.33677577 -4.7019774e-38)
(-2.552049 0.34346178 -2.2541668e-17)
(-2.5214805 0.3501229 -7.5231638e-37)
(-2.4887433 0.35609764 3.7466932e-37)
(-2.4550809 0.36216502 2.2194781e-40)
(-2.417217 0.36732295 4.3756932e-34)
(-2.3781332 0.37211831 4.6470734e-38)
(-2.3349636 0.37583813 -3.7615819e-37)
(-2.2928925 0.37885464 1.3622538e-17)
(-2.2506971 0.38130604 -1.3970259e-17)
(-2.2093109 0.38295291 -1.4312347e-17)
(-2.1690935 0.3842028 0)
(-2.1317088 0.38509073 1.5022793e-17)
(-2.094374 0.38581047 -2.1817175e-34)
(-2.0565116 0.3854689 -1.5771167e-17)
(-2.0273005 0.38620721 -1.61602e-17)
(-1.9969454 0.38659338 -1.0054855e-21)
(-1.9725831 0.38767441 1.0423392e-21)
(-1.950041 0.39005142 -1.0580476e-21)
(-1.9168907 0.3913858 -8.9414952e-18)
(-1.8755311 0.39160344 -9.1734884e-18)
(-1.8314995 0.39176523 -9.4014896e-18)
(-1.7749386 0.38998124 0)
(-1.710694 0.38605239 -5.6004163e-23)
(-1.6423345 0.38120273 1.0060051e-17)
(-1.5614682 0.37286393 -1.0259977e-17)
(-1.4760833 0.36265778 -2.0888111e-17)
(-1.3750887 0.3478207 1.3087784e-21)
(-1.2656852 0.32938779 1.2977142e-21)
(-1.1319826 0.30270794 -2.6555327e-21)
(-1.0024297 0.27618129 -1.0674358e-17)
(-0.74623952 0.21033162 1.0636084e-17)
(-0.77162704 0.20595669 5.8763935e-18)
(0.15387956 -0.025293657 0)
(0.44719546 -0.17334521 -1.5327421e-17)
(0.43177078 -0.17329286 -3.6631466e-23)
(0.51658849 -0.21408477 2.7706011e-17)
(0.470114 -0.20275187 -1.3249315e-17)
(0.49557472 -0.22219543 -7.5696407e-22)
(0.47192229 -0.22044981 -1.2091291e-17)
(0.46827097 -0.2276878 -1.1606252e-17)
(0.44241846 -0.22429876 3.7615819e-37)
(0.42069544 -0.22193511 -1.0880605e-17)
(0.38983497 -0.21396002 1.0558086e-17)
(0.36298467 -0.20668601 -6.8761718e-34)
(0.33359131 -0.19658933 2.0144233e-17)
(0.30868818 -0.18761574 -9.8705362e-18)
(0.28419573 -0.17746894 -4.85806e-24)
(0.26325064 -0.16884904 -5.8422471e-22)
(0.24303145 -0.16001343 -9.3819978e-18)
(0.22461072 -0.15096793 5.6601943e-22)
(0.20885457 -0.14325678 0)
(0.19443241 -0.13639629 -1.7999067e-17)
(0.18070896 -0.12894578 -1.7772544e-17)
(0.16965053 -0.12327034 1.7557692e-17)
(0.15929786 -0.11784215 1.7339303e-17)
(0.14970478 -0.11243778 5.5948055e-22)
(0.14186669 -0.10811666 1.6945879e-17)
(0.13462939 -0.10412671 -1.6752408e-17)
(0.1277654 -0.10005526 -3.3139411e-17)
(0.12198538 -0.096674069 1.6387602e-17)
(0.11584929 -0.092845201 -9.6251128e-22)
(0.11075596 -0.089506258 1.6083862e-17)
(0.10602837 -0.086640532 1.5863845e-17)
(0.10020209 -0.082414413 -1.6206738e-17)
(0.096110065 -0.079502806 1.5061355e-17)
(0.091452407 -0.076296804 -9.3920825e-22)
(0.086400344 -0.072337193 -1.521658e-17)
(0.08230076 -0.069155214 -9.3318145e-22)
(0.078154639 -0.065915726 1.4870544e-17)
(0.074504679 -0.063031112 9.008667e-22)
(0.0708484 -0.060161547 1.4605292e-17)
(0.067327753 -0.057276824 2.8918577e-17)
(0.064474095 -0.054986977 1.3496556e-33)
(0.061389797 -0.052492902 1.4176473e-17)
(0.058046099 -0.049654046 -8.5663759e-22)
(0.055356589 -0.047295567 1.6924346e-21)
(0.052374845 -0.044742334 2.7540613e-17)
(0.049067792 -0.041750429 -8.3285503e-22)
(0.046592075 -0.039454112 2.7290693e-17)
(0.044154216 -0.037245034 -1.3371057e-17)
(0.041822446 -0.035099716 1.315595e-17)
(0.040587831 -0.033919661 3.0092655e-36)
(0.038907158 -0.032451984 -1.3031448e-17)
(0.038064834 -0.031594515 0)
(0.037327014 -0.031013335 1.2837225e-17)
(0.036691995 -0.030385708 -7.162052e-34)
(0.036523489 -0.030265381 -2.4986569e-17)
(0.036259213 -0.029975882 -1.5612153e-23)
(0.036772623 -0.030407574 -2.4698651e-17)
(0.036614607 -0.030242657 2.4345205e-17)
(0.036685015 -0.030220131 -6.0185311e-36)
(0.036916752 -0.030276387 -2.4138082e-17)
(0.03744717 -0.030576166 -7.3110529e-22)
(0.038138067 -0.030984081 -2.2698908e-23)
(0.03844892 -0.031060447 7.1861121e-22)
(0.039052387 -0.031252376 2.322979e-17)
(0.040384306 -0.032079918 -2.3097667e-17)
(0.041032824 -0.032305856 -4.6103731e-17)
(0.042177636 -0.03283771 7.002612e-22)
(0.044205465 -0.034066651 -6.9545969e-22)
(0.046053153 -0.035166493 -2.2514113e-17)
(0.047972028 -0.036214784 6.8140121e-22)
(0.051265223 -0.03830943 2.2192643e-17)
(0.053698337 -0.039745888 -6.716755e-22)
(0.057785996 -0.042294114 0)
(0.061190788 -0.044434525 -6.6386828e-22)
(0.064369791 -0.046193862 -2.1582771e-17)
(0.06898849 -0.04900198 2.1445831e-17)
(0.072601401 -0.05101742 6.5044163e-22)
(0.076892379 -0.053405659 -2.1140692e-17)
(0.080231965 -0.055036311 6.416425e-22)
(0.084522975 -0.057147498 -6.3533266e-22)
(0.089254001 -0.059579095 2.0722755e-17)
(0.093527671 -0.061553769 -2.0588835e-17)
(0.097631882 -0.06331011 2.044834e-17)
(0.10205103 -0.065108003 4.0623144e-17)
(0.10701915 -0.067217758 2.0180932e-17)
(0.11214042 -0.069297066 6.1099189e-22)
(0.11672863 -0.070959049 3.9831151e-17)
(0.12238146 -0.073076634 -1.9782491e-17)
(0.12748829 -0.074873895 1.2007609e-21)
(0.13233015 -0.076237782 -5.9561182e-22)
(0.13874526 -0.078509826 1.9413676e-17)
(0.14371893 -0.079801245 -5.8786909e-22)
(0.149432 -0.081323202 -1.915832e-17)
(0.15418328 -0.082214893 5.8201144e-22)
(0.16142821 -0.084239342 -1.8929544e-17)
(0.16724901 -0.085605515 0)
(0.17171693 -0.0858259 1.0582114e-23)
(0.17902303 -0.087501211 5.6740792e-22)
(0.1846262 -0.088205238 1.8439068e-17)
(0.19151134 -0.08932925 -3.6670305e-17)
(0.19690862 -0.089682823 -3.0092655e-36)
(0.20393095 -0.090473323 5.5897816e-22)
(0.21025752 -0.091054106 1.7989526e-17)
(0.21708233 -0.091460381 1.7880469e-17)
(0.22412222 -0.09209276 5.4310821e-22)
(0.23141375 -0.092476062 1.7674785e-17)
(0.23871337 -0.092977245 -3.5107927e-17)
(0.24688331 -0.093480801 -1.7454648e-17)
(0.25510586 -0.094171903 -5.3009751e-22)
(0.26348486 -0.094554342 -1.6353826e-24)
(0.27299137 -0.095507931 1.7138016e-17)
(0.27975844 -0.095116937 -1.7024806e-17)
(0.28847863 -0.095272609 -1.0327615e-21)
(0.29768185 -0.095574851 1.6811267e-17)
(0.30465957 -0.094984808 -5.0926413e-22)
(0.31370953 -0.094763969 1.6612981e-17)
(0.3240852 -0.095225164 1.6505115e-17)
(0.33316632 -0.095072855 2.3509887e-38)
(0.34367337 -0.095323132 1.6299115e-17)
(0.35334701 -0.09527145 -7.5231638e-37)
(0.36429136 -0.095208002 2.7931928e-17)
(0.37514291 -0.09486829 6.567722e-34)
(0.38619357 -0.09440871 -3.7615819e-37)
(0.39733958 -0.09406858 1.4359363e-17)
(0.40843173 -0.093600435 -1.0937198e-24)
(0.41913363 -0.093126012 8.9224587e-22)
(0.4301784 -0.092626854 1.0003011e-24)
(0.44065039 -0.092172249 1.4875331e-17)
(0.45201942 -0.091827275 1.5007831e-17)
(0.4646735 -0.092117702 -1.5128878e-17)
(0.47479971 -0.091790859 -1.5248808e-17)
(0.48545757 -0.091497918 4.6918813e-22)
(0.49533577 -0.091135529 -1.5479725e-17)
(0.50491938 -0.090603913 -2.3509887e-38)
(0.5156541 -0.090439459 -1.5705872e-17)
(0.52443177 -0.089897166 -1.5809567e-17)
(0.53246353 -0.089026135 -3.183192e-17)
(0.54171954 -0.088494723 -9.7910873e-22)
(0.55200901 -0.088298539 -1.6126192e-17)
(0.55977032 -0.087739685 1.6218411e-17)
(0.56743739 -0.086889634 -2.330405e-25)
(0.57800093 -0.086921171 -5.0108177e-22)
(0.58522623 -0.086423982 8.2494116e-18)
(0.59196732 -0.085587849 -8.2933581e-18)
(0.60200138 -0.085574713 -9.4430693e-25)
(0.6088706 -0.085182779 8.3700472e-18)
(0.61458932 -0.084193685 2.9387359e-38)
(0.62224555 -0.08369715 8.4426447e-18)
(0.62786478 -0.082820822 -8.4738114e-18)
(0.63277646 -0.081617844 -8.505584e-18)
(0.63826448 -0.080489998 1.9372147e-34)
(0.6434304 -0.079322397 -8.9432426e-24)
(0.64758818 -0.077953356 8.5905703e-18)
(0.65431011 -0.076971223 -8.6190461e-18)
(0.65942444 -0.076048858 -1.7276314e-17)
(0.66319021 -0.074425266 1.5183273e-34)
(0.66746675 -0.073062373 -1.735106e-17)
(0.67055598 -0.071146233 -8.6917417e-18)
(0.67142655 -0.068914386 8.7033327e-18)
(0.67518167 -0.066562502 -8.8162076e-39)
(0.67698022 -0.064538996 8.729543e-18)
(0.67929981 -0.061653731 4.372771e-18)
(0.68169332 -0.059500683 -4.3756763e-18)
(0.68236614 -0.056256353 -4.3826852e-18)
(0.68532036 -0.053722072 -5.3708745e-22)
(0.68640276 -0.05062791 4.3919435e-18)
(0.68799446 -0.047579365 -5.3514815e-22)
(0.68867044 -0.044306353 5.3861356e-22)
(0.68963661 -0.040917145 -4.4046402e-18)
(0.69123344 -0.037679772 -5.39828e-22)
(0.69403817 -0.034576461 5.3753978e-22)
(0.69626749 -0.031618526 -2.2101967e-18)
(0.69638511 -0.028231735 2.2118748e-18)
(0.69756618 -0.024913795 -2.2153955e-18)
(0.70168932 -0.022059029 2.2182293e-18)
(0.70322777 -0.019362023 -1.1093395e-18)
(0.70588719 -0.016435073 1.1118585e-18)
(0.70690314 -0.013987344 1.1124695e-18)
(0.70942975 -0.01125804 5.4294155e-22)
(0.71351103 -0.009591548 5.5695375e-19)
(0.71690898 -0.0078877661 1.0917361e-21)
(0.72145154 -0.0070588556 5.5902988e-19)
(0.72889433 -0.0066682151 5.604949e-19)
(0.73402683 -0.0071911113 -5.6042699e-19)
(0.73599467 -0.0070034457 1.1203666e-18)
(0.73932724 -0.0074945884 5.5902118e-19)
(0.74077551 -0.0077329001 1.4693679e-39)
(0.73701241 -0.0076360925 -3.9570024e-38)
(0.73603904 -0.0070578572 -1.3565013e-35)
(0.7369279 -0.0075321911 -5.3948568e-22)
(0.7349163 -0.0074778744 5.5484089e-19)
(0.73359106 -0.0078205788 -1.0785624e-21)
(0.73477058 -0.0082532765 5.1265118e-24)
(0.73681295 -0.0096324515 5.4920581e-19)
(0.73741934 -0.010481324 -4.1286423e-24)
(0.73380286 -0.011153194 -2.2202226e-35)
(0.72841909 -0.010302091 -5.2428507e-22)
(0.71789631 -0.0089293941 -5.357209e-19)
(0.701823 -0.005647862 -5.2832476e-19)
(0.6918175 -0.002630629 -5.294873e-22)
)
;
    }
    defaultFaces
    {
        type            empty;
    }
}


// ************************************************************************* //
