/*--------------------------------*- C++ -*----------------------------------*\
| =========                 |                                                 |
| \\      /  F ield         | OpenFOAM: The Open Source CFD Toolbox           |
|  \\    /   O peration     | Version:  2406                                  |
|   \\  /    A nd           | Website:  www.openfoam.com                      |
|    \\/     M anipulation  |                                                 |
\*---------------------------------------------------------------------------*/
FoamFile
{
    version     2.0;
    format      ascii;
    arch        "LSB;label=32;scalar=64";
    class       volScalarField;
    location    "2406";
    object      yPlus;
}
// * * * * * * * * * * * * * * * * * * * * * * * * * * * * * * * * * * * * * //

dimensions      [0 0 0 0 0 0 0];

internalField   uniform 0;

boundaryField
{
    inlet
    {
        type            calculated;
        value           uniform 0;
    }
    topWall
    {
        type            symmetry;
    }
    jet
    {
        type            calculated;
        value           uniform 0;
    }
    outlet
    {
        type            calculated;
        value           uniform 0;
    }
    bottomWall
    {
        type            calculated;
        value           nonuniform List<scalar> 
380
(
0.070696933
0.077947153
0.10255515
0.13039678
0.15636137
0.18076981
0.20436463
0.22756495
0.25019163
0.27226256
0.29349567
0.31361135
0.33233382
0.34921674
0.36371647
0.37538184
0.38419772
0.39039543
0.39449904
0.39683988
0.39784792
0.39810728
0.39808286
0.39786189
0.39749935
0.39705812
0.39657921
0.39608817
0.39560013
0.39512345
0.39466333
0.39422323
0.39380559
0.39341006
0.39303595
0.39268357
0.39235317
0.39204287
0.39175085
0.3914763
0.39121852
0.3909762
0.39074905
0.39053532
0.39033408
0.39014394
0.38996441
0.38979445
0.3896333
0.38947998
0.38933427
0.38919513
0.38906183
0.38893356
0.3888099
0.38869015
0.38857374
0.38846014
0.38834896
0.38823972
0.38813202
0.38802546
0.38791959
0.38781421
0.38770911
0.38760382
0.38749818
0.38739186
0.38728734
0.38718373
0.38707712
0.38696721
0.38685383
0.38673659
0.38661517
0.38648926
0.38635874
0.3862232
0.38608234
0.3859358
0.38578317
0.38562423
0.38545866
0.38528595
0.38510595
0.38491827
0.38472251
0.3845182
0.384305
0.38408263
0.38385076
0.38360887
0.38335654
0.38309337
0.38281896
0.38253287
0.38223466
0.3819239
0.38160012
0.38126288
0.38091169
0.38054609
0.38016557
0.37976965
0.37935779
0.3789295
0.37848422
0.37802144
0.37754056
0.37704104
0.37652227
0.3759837
0.37542466
0.37484457
0.37424274
0.37361857
0.37297134
0.37230036
0.37160493
0.37088425
0.37013761
0.3693642
0.3685632
0.36773379
0.36687508
0.36598618
0.36506619
0.36411416
0.3631291
0.36211001
0.3610558
0.35996546
0.35883775
0.35767163
0.35646578
0.35521906
0.35393002
0.35259746
0.35121977
0.34979572
0.34832356
0.34680188
0.34522881
0.34360271
0.34192175
0.34018399
0.33838745
0.33652996
0.33460935
0.33262322
0.33056915
0.32844448
0.3262465
0.32397221
0.32161855
0.31918216
0.31665943
0.31404692
0.31133998
0.30853497
0.30562643
0.30261012
0.29947971
0.2962302
0.29285415
0.28934556
0.28569562
0.28189706
0.27793954
0.2738132
0.26950676
0.26500695
0.26030048
0.2553692
0.25019905
0.24476035
0.2390475
0.23299252
0.22664085
0.21977817
0.21390737
0.20947726
0.2047666
0.19970391
0.19444366
0.18891034
0.18309182
0.17694059
0.17044123
0.16349183
0.15614167
0.14807785
0.13969395
0.12976332
0.12048888
0.10659848
0.097574462
0.073311536
0.06913275
0.045834955
0.27248372
0.27376934
0.27367044
0.27346635
0.27279888
0.27213246
0.2711915
0.27022754
0.26906017
0.26784881
0.26645839
0.26501211
0.26339085
0.26170185
0.25982714
0.25786176
0.2556997
0.25342417
0.25095441
0.24836577
0.24574563
0.24318941
0.24053825
0.23783153
0.23504555
0.23220985
0.22929127
0.22630677
0.22324466
0.22012382
0.2169302
0.21366071
0.21031
0.20689203
0.2033982
0.19982143
0.19615318
0.19239921
0.18855413
0.18461154
0.18055799
0.1763945
0.17211718
0.16771767
0.16318767
0.15852815
0.1537322
0.1487792
0.14365937
0.13836026
0.13286118
0.12714262
0.12117821
0.1149399
0.10838847
0.10145634
0.09407089
0.086128646
0.077460579
0.067789473
0.056610596
0.042760434
0.021631228
0.029597016
0.046931575
0.05925967
0.069291047
0.077915787
0.085557387
0.092466772
0.098791501
0.10463485
0.11008227
0.115189
0.12000192
0.12455803
0.12888775
0.13301617
0.1369838
0.14080109
0.14450638
0.14812246
0.15166279
0.15515158
0.15862493
0.16210213
0.165587
0.16905833
0.17250346
0.17590897
0.17926838
0.18257244
0.18581787
0.18900179
0.19212606
0.19518758
0.19818869
0.2011323
0.20402033
0.20685173
0.20962702
0.21234508
0.21500897
0.21761699
0.22017211
0.22267615
0.2251323
0.22753987
0.22990038
0.23221231
0.23447901
0.23669765
0.2388727
0.24100273
0.24309315
0.24514066
0.24714973
0.24911673
0.2510459
0.25293304
0.25478481
0.25659734
0.25837694
0.2601186
0.26182816
0.26350034
0.26514064
0.26674541
0.26832069
0.26986308
0.27137784
0.27286073
0.27461797
0.27664588
0.27868542
0.28073101
0.2827854
0.28484146
0.28689624
0.28894411
0.29098044
0.29300307
0.29500538
0.29698758
0.29894217
0.30087131
0.30276593
0.30463043
0.30645441
0.30824437
0.309988
0.31169495
0.31335039
0.31496767
0.3165292
0.31805272
0.31951691
0.3209441
0.32230913
0.32363967
0.32490536
0.32614126
0.32731017
0.32845511
0.32953075
0.33059105
0.33157946
0.33256251
0.33347108
0.33438863
0.3352301
0.33609741
0.33688324
0.33771642
0.33846258
0.33928751
0.34000411
0.34091103
0.34152429
0.3428419
)
;
    }
    hump
    {
        type            calculated;
        value           nonuniform List<scalar> 
320
(
0.026291896
0.10063179
0.094908706
0.12233023
0.13896461
0.15985408
0.17922546
0.19989627
0.22121611
0.24300716
0.26637515
0.29140721
0.31672436
0.34277825
0.3696486
0.39618734
0.42187596
0.44201356
0.45005871
0.46005684
0.46910406
0.47488925
0.47914037
0.49131491
0.50416809
0.50577872
0.50831731
0.51060239
0.51072506
0.51010782
0.50891311
0.50800281
0.50719658
0.5064323
0.50577242
0.5055268
0.50753245
0.50844408
0.50910777
0.50990415
0.51039299
0.51118424
0.51155472
0.51193989
0.51260819
0.51259365
0.51318178
0.51383877
0.51331599
0.5134572
0.51456424
0.51457658
0.51373942
0.51343375
0.51335064
0.51324242
0.51313582
0.51299283
0.51276037
0.51228907
0.51162846
0.511119
0.51102998
0.51104777
0.51061777
0.50960763
0.50847057
0.50768008
0.50733857
0.50712579
0.50666692
0.50571986
0.50436674
0.50286039
0.50135273
0.49989278
0.49837558
0.4968572
0.49528407
0.49361776
0.4919914
0.49025652
0.48848476
0.48672347
0.48488777
0.48307788
0.48143926
0.47965101
0.47786649
0.4757272
0.47334459
0.47086219
0.46794368
0.46487021
0.46134184
0.45784179
0.4542632
0.45067997
0.44714944
0.44383014
0.44047006
0.43697125
0.43433057
0.43153643
0.42934391
0.42737762
0.4242852
0.42027197
0.41592976
0.41013233
0.40330896
0.39585787
0.38667529
0.37662637
0.36418326
0.35003412
0.33162044
0.31266948
0.27020169
0.27442913
0.12147129
0.21384858
0.21059697
0.23083963
0.22077752
0.22724165
0.22232775
0.22202518
0.21636905
0.21150851
0.20409682
0.19738479
0.18962452
0.18276039
0.17566507
0.16935494
0.16298947
0.15691463
0.15152297
0.14640993
0.14132756
0.13711232
0.13303109
0.12911569
0.12583628
0.12272682
0.11968859
0.11707395
0.11421257
0.11178378
0.10948462
0.10653741
0.10443691
0.10197607
0.09921016
0.096916301
0.094531628
0.092382273
0.090171609
0.087984055
0.08617914
0.084171122
0.081922795
0.080073144
0.077958336
0.075524259
0.073657505
0.071768935
0.069911403
0.068931282
0.067555266
0.06687869
0.066294761
0.065789544
0.06570482
0.065529821
0.066056241
0.065979429
0.066105812
0.066374496
0.0669096
0.067581909
0.067916096
0.068499806
0.069710615
0.070321523
0.071343856
0.073085692
0.074647876
0.076234258
0.078852738
0.080754713
0.083815933
0.086306873
0.088568479
0.091740825
0.094165494
0.09695674
0.099088744
0.10174432
0.1045989
0.10711456
0.1094777
0.11195899
0.11468455
0.11742431
0.1198294
0.12271311
0.12526959
0.1276323
0.13069852
0.13302294
0.13563286
0.13775997
0.14093407
0.14343997
0.14529623
0.14831281
0.15056647
0.15328546
0.15536491
0.15802023
0.16037469
0.16284506
0.16537025
0.16791396
0.17043292
0.17318679
0.17593245
0.17865115
0.18172264
0.18380321
0.18647885
0.18926785
0.19129712
0.19391481
0.19693114
0.19948769
0.20243179
0.20508357
0.20803411
0.2108965
0.21375271
0.2166048
0.21938874
0.22204042
0.22473607
0.22726901
0.22999112
0.23304536
0.23542063
0.2378934
0.24015933
0.24231894
0.24474971
0.24669199
0.2484207
0.25043437
0.25268587
0.25434836
0.25594597
0.2582294
0.25975085
0.26112485
0.26324962
0.26467944
0.26580236
0.26736051
0.26846224
0.26938083
0.27041607
0.27137755
0.27211341
0.27338851
0.27435088
0.27496668
0.27570646
0.27614884
0.2761233
0.27663506
0.27680452
0.2769688
0.27722858
0.27702424
0.27733708
0.27721874
0.27719792
0.27696884
0.27677558
0.27671688
0.2769012
0.27698788
0.27661068
0.27644173
0.27689102
0.27686124
0.2770119
0.27690683
0.27705153
0.27762919
0.27806803
0.27883687
0.2802073
0.28125187
0.28160399
0.28229841
0.28260339
0.2818859
0.2816297
0.28186063
0.28147491
0.28127085
0.28154953
0.28211121
0.28233243
0.28173487
0.28060477
0.27842339
0.2749045
0.272563
)
;
    }
    defaultFaces
    {
        type            empty;
    }
}


// ************************************************************************* //
