# Wall shear stress
# Time          	patch           	min             	max             
1000            	bottomWall	(-1.16911315e+01 -1.19702470e+00 -2.85935635e-16)	(5.58850148e-01 3.55081807e+00 1.91887416e-16)
2000            	bottomWall	(-1.17699567e+01 -1.20090101e+00 -2.87523555e-16)	(5.67938054e-01 3.57139557e+00 1.92878021e-16)
3000            	bottomWall	(-1.17719080e+01 -1.20092835e+00 -2.87561084e-16)	(5.68139377e-01 3.57190702e+00 1.92902142e-16)
4000            	bottomWall	(-1.17719529e+01 -1.20092874e+00 -2.87562001e-16)	(5.68144018e-01 3.57191878e+00 1.92902730e-16)
5000            	bottomWall	(-1.17719539e+01 -1.20092875e+00 -2.87562022e-16)	(5.68144124e-01 3.57191905e+00 1.92902743e-16)
