/*--------------------------------*- C++ -*----------------------------------*\
| =========                 |                                                 |
| \\      /  F ield         | OpenFOAM: The Open Source CFD Toolbox           |
|  \\    /   O peration     | Version:  2406                                  |
|   \\  /    A nd           | Website:  www.openfoam.com                      |
|    \\/     M anipulation  |                                                 |
\*---------------------------------------------------------------------------*/
FoamFile
{
    version     2.0;
    format      ascii;
    arch        "LSB;label=32;scalar=64";
    class       volVectorField;
    location    "100";
    object      force;
}
// * * * * * * * * * * * * * * * * * * * * * * * * * * * * * * * * * * * * * //

dimensions      [1 1 -2 0 0 0 0];

internalField   uniform (0 0 0);

boundaryField
{
    inlet
    {
        type            calculated;
        value           uniform (0 0 0);
    }
    topWall
    {
        type            symmetry;
    }
    jet
    {
        type            calculated;
        value           uniform (0 0 0);
    }
    outlet
    {
        type            calculated;
        value           uniform (0 0 0);
    }
    bottomWall
    {
        type            calculated;
        value           uniform (0 0 0);
    }
    hump
    {
        type            calculated;
        value           nonuniform List<vector> 
320
(
(0.0063258244 -0.060650465 5.9324238e-21)
(0.0097942364 -0.062216986 1.1877784e-20)
(0.013585316 -0.06365491 -1.2914894e-21)
(0.017719022 -0.064866656 2.586462e-21)
(0.022031851 -0.065909319 2.2771734e-26)
(0.026287719 -0.066885743 5.0396907e-20)
(0.030429989 -0.067801105 -2.6556685e-20)
(0.034422759 -0.068764317 -2.2876483e-26)
(0.038126917 -0.069876249 -5.3428269e-20)
(0.041556554 -0.071189505 -1.1550248e-26)
(0.044743969 -0.072696658 5.3800037e-20)
(0.047463771 -0.074456104 4.4081038e-39)
(0.049588369 -0.076417482 4.864082e-20)
(0.051133201 -0.078265348 -4.8374865e-20)
(0.051683227 -0.079812258 5.2854465e-20)
(0.0509671 -0.080467609 -5.1306043e-20)
(0.049078225 -0.079691349 5.3870859e-27)
(0.044020818 -0.077111998 -8.7991343e-21)
(0.039255984 -0.072673455 8.0946336e-20)
(0.034472462 -0.065403292 1.0165712e-27)
(0.02893709 -0.055520258 3.4063954e-28)
(0.023001549 -0.043228233 -3.9226226e-20)
(0.016983293 -0.02857757 5.3972191e-20)
(0.010790302 -0.011214085 1.793662e-43)
(0.0028297118 0.012117642 -9.6585713e-28)
(-0.0044002001 0.035926153 2.5210954e-20)
(-0.011027948 0.060976553 -6.0523892e-27)
(-0.017154262 0.088091476 1.2574568e-19)
(-0.022382413 0.11517972 8.0535442e-27)
(-0.026877927 0.14292287 1.0083041e-19)
(-0.030624262 0.17015049 -1.0482593e-19)
(-0.033789883 0.19746711 -1.3257697e-26)
(-0.036360287 0.2249126 -1.4388893e-19)
(-0.038349325 0.25216341 -2.1529615e-35)
(-0.039791642 0.27937978 1.510154e-19)
(-0.040808589 0.30624732 -1.6023507e-19)
(-0.032760233 0.26196966 8.3908061e-20)
(-0.030713818 0.26246096 -9.6531854e-20)
(-0.028614891 0.2609161 -4.2154714e-26)
(-0.026377993 0.25843765 9.2014418e-20)
(-0.024171136 0.25462652 4.6962597e-20)
(-0.021984431 0.24985679 -5.2932537e-20)
(-0.019755747 0.24461221 -5.2598961e-21)
(-0.017746443 0.23833002 -4.7233848e-26)
(-0.015726705 0.23186201 -2.4650204e-20)
(-0.013804599 0.22501393 -1.7979553e-36)
(-0.012126621 0.21768967 -2.7557245e-20)
(-0.010375185 0.21045856 2.7612109e-20)
(-0.008722071 0.20307902 -2.5254761e-40)
(-0.0074179344 0.19548208 -1.2427315e-20)
(-0.0061214621 0.18817963 1.3738011e-20)
(-0.0047651228 0.18203458 -1.3688572e-20)
(-0.0034981061 0.17172372 5.2730595e-28)
(-0.0025418089 0.16672485 6.1053006e-21)
(-0.0016342046 0.15939199 -9.2844393e-26)
(-0.00081651647 0.15263653 3.0103498e-21)
(-7.0984556e-05 0.14611071 -1.4937954e-21)
(0.00060877436 0.13981269 -7.4080243e-22)
(0.0012327643 0.13375525 -7.4306192e-28)
(0.0018041722 0.12793866 -8.0812053e-22)
(0.0023002276 0.12236034 8.7853529e-26)
(0.0027073226 0.11702778 1.5890734e-21)
(0.0030493622 0.11193226 -2.2814233e-37)
(0.003383063 0.10707872 -3.0619279e-22)
(0.0037211625 0.10244967 3.101884e-21)
(0.0040331789 0.098043353 -3.0781776e-21)
(0.0042793593 0.093846939 8.379785e-26)
(0.0044596255 0.089853505 -8.3799642e-26)
(0.0045989082 0.086059142 -3.0125279e-21)
(0.0047358112 0.08244936 2.9928928e-21)
(0.0048818552 0.079011625 -2.6829224e-21)
(0.0050330593 0.075740392 -1.6280492e-25)
(0.005167896 0.072627968 8.1170421e-26)
(0.0052758438 0.069664451 -8.0324441e-26)
(0.0053542371 0.066844491 8.0325493e-26)
(0.0054104532 0.064154459 -2.8976223e-21)
(0.005450524 0.061594597 7.9589709e-26)
(0.0054751628 0.059150669 -7.8952468e-26)
(0.005490174 0.056819106 7.8953003e-26)
(0.0054933308 0.054593908 5.4263618e-21)
(0.0054861726 0.052467835 7.8162169e-26)
(0.005473103 0.050436486 -2.5575414e-21)
(0.0054494035 0.04849039 2.7700584e-22)
(0.0054201981 0.046632416 7.7535149e-26)
(0.0053839314 0.044850413 -2.5378341e-21)
(0.0053404459 0.043145084 2.5321468e-21)
(0.005292227 0.041513736 -2.801331e-21)
(0.005245665 0.039945647 1.1479437e-41)
(0.0051973643 0.038441829 -2.791043e-21)
(0.0051570745 0.036995484 9.1835496e-41)
(0.0051120429 0.03561076 -2.7623255e-41)
(0.0050703771 0.034277641 -1.5567614e-44)
(0.0050258698 0.032995344 -8.214026e-38)
(0.0049807003 0.031766693 -6.5258168e-42)
(0.0049321677 0.030586997 4.5917748e-41)
(0.0048740205 0.029453747 1.3825273e-21)
(0.0048105214 0.028358514 1.2459529e-21)
(0.0047390963 0.027312291 -1.3799844e-21)
(0.0046625778 0.026302461 9.1835496e-41)
(0.0045795535 0.025337333 -1.2426606e-21)
(0.0044967273 0.024402367 3.1040398e-38)
(0.0044070752 0.023508324 -1.3756112e-21)
(0.0043128448 0.022643749 -1.3748531e-21)
(0.0042215414 0.021815628 7.5612684e-26)
(0.0041278559 0.021020247 -7.5612191e-26)
(0.004047531 0.020257061 7.5525885e-26)
(0.0039796734 0.019509954 6.1846412e-22)
(0.0039198807 0.018788121 -6.8543148e-22)
(0.0038684658 0.018095571 -6.8509846e-22)
(0.0038277633 0.017423085 4.5917748e-41)
(0.0037874684 0.016777493 -1.3018349e-21)
(0.0037521757 0.016152666 -6.1709082e-22)
(0.0037185234 0.015550159 -6.8395194e-22)
(0.0036853555 0.014970502 -6.7011144e-23)
(0.0036551413 0.014408425 -7.5258263e-26)
(0.0036228694 0.013868134 -7.5212662e-26)
(0.0035889081 0.013347995 1.5040431e-25)
(0.0036597738 0.013189447 -6.8310433e-22)
(0.0036632906 0.012836855 -6.1560602e-22)
(0.0032321545 0.011076448 -3.0781059e-22)
(0.0057596374 0.015572167 -9.1835496e-41)
(0.0060281229 0.015630802 -1.3626836e-21)
(0.0062931327 0.015688407 1.7502494e-29)
(0.00654733 0.015752653 1.3366263e-22)
(0.0068403853 0.015792471 -1.361571e-21)
(0.0071349575 0.01583636 7.4932673e-26)
(0.007450149 0.015864021 -1.3611188e-21)
(0.0077683862 0.015889207 1.2273551e-21)
(0.0081235406 0.015935527 -5.7397185e-42)
(0.0084180988 0.015871519 1.227019e-21)
(0.0087789162 0.015914997 1.3600693e-21)
(0.0091060814 0.015917522 1.684263e-37)
(0.0094251697 0.01592657 1.3334957e-22)
(0.0097267367 0.015942981 1.2261967e-21)
(0.010007802 0.015972865 6.5542798e-30)
(0.010287317 0.015990635 7.4833154e-26)
(0.010579513 0.0160243 -1.3590959e-21)
(0.010823143 0.01606406 -7.4818922e-26)
(0.011073637 0.016110172 3.6734198e-40)
(0.011345516 0.016140768 -2.7176619e-21)
(0.011578035 0.016198063 2.4511304e-21)
(0.011821947 0.016244576 -2.450964e-21)
(0.012074936 0.016298407 -2.4506809e-21)
(0.01230044 0.016355788 -5.1677481e-21)
(0.012529333 0.01642034 2.7170598e-21)
(0.012764496 0.01648362 2.4502864e-21)
(0.012979853 0.016555806 -2.665087e-22)
(0.01319781 0.016633773 -2.4502974e-21)
(0.013451119 0.016765074 -5.1666462e-21)
(0.013562855 0.016764747 -2.4502166e-21)
(0.013822191 0.016894211 -2.4501581e-21)
(0.013563272 0.016472754 -2.716319e-21)
(0.014626629 0.017662725 -2.4503112e-21)
(0.014361187 0.017192884 1.4954588e-25)
(0.014543176 0.017351698 2.450024e-21)
(0.014712557 0.017491052 5.1668311e-21)
(0.014915411 0.017667923 2.7165201e-21)
(0.015047699 0.017770563 -1.4955143e-25)
(0.015219948 0.01790794 -2.4503151e-21)
(0.015377734 0.018063468 2.6629838e-22)
(0.015542029 0.018211341 -1.9138517e-37)
(0.015710424 0.018361384 2.7168206e-21)
(0.015858485 0.018531485 1.4957503e-25)
(0.015991777 0.018713265 5.1673942e-21)
(0.016138935 0.018891074 2.6632167e-22)
(0.016243091 0.019098569 1.4958688e-25)
(0.016191001 0.019136952 2.6634263e-22)
(0.016480382 0.019564381 2.4509543e-21)
(0.016695667 0.019935209 -2.4510675e-21)
(0.016664797 0.019989944 -7.3468397e-40)
(0.016795062 0.020198047 2.451455e-21)
(0.016898664 0.02043232 7.3468397e-40)
(0.017017953 0.020563914 -2.4517239e-21)
(0.017021364 0.020646187 1.9909936e-37)
(0.01747332 0.021187879 -5.436864e-21)
(0.017375945 0.021129397 -1.034159e-20)
(0.017677593 0.021492759 -5.437481e-21)
(0.017935081 0.0218387 5.4378346e-21)
(0.017925163 0.021893044 0)
(0.018041458 0.02214097 4.9055194e-21)
(0.018157923 0.022388582 1.4971802e-25)
(0.018268636 0.022642119 -1.0345317e-20)
(0.018373488 0.022908994 -1.497278e-25)
(0.018552748 0.023360717 -4.9067712e-21)
(0.018602227 0.023596428 -5.4401843e-21)
(0.018563808 0.023766078 -5.3315209e-22)
(0.018565913 0.024042587 -1.4977613e-25)
(0.018576744 0.024301421 1.4977654e-25)
(0.018748565 0.024750819 -5.4414284e-21)
(0.018785793 0.025088011 -1.4979576e-25)
(0.018843263 0.02541062 5.4421253e-21)
(0.018903832 0.025736192 1.4981522e-25)
(0.018956533 0.026085681 3.5032462e-46)
(0.01902937 0.026383828 1.4984298e-25)
(0.01905711 0.026733217 4.9102245e-21)
(0.019100078 0.027056066 5.4438418e-21)
(0.019153051 0.027418033 -1.4987093e-25)
(0.01918854 0.027780477 4.9112827e-21)
(0.019204246 0.02814784 -1.4988919e-25)
(0.019207732 0.028557043 1.4988968e-25)
(0.019205287 0.028911527 -4.9121533e-21)
(0.019194867 0.029301163 -5.4457952e-21)
(0.019178557 0.029708301 5.4460809e-21)
(0.019141206 0.030132064 5.338262e-22)
(0.019104905 0.030542646 5.4469933e-21)
(0.01906408 0.030970085 -1.4994149e-25)
(0.019017224 0.031400723 5.3361428e-22)
(0.018955899 0.031857073 4.914255e-21)
(0.018881042 0.032255631 -2.9993879e-25)
(0.018788649 0.032718283 1.4997356e-25)
(0.018718285 0.033178179 -4.9148615e-21)
(0.018622607 0.033634434 1.4998902e-25)
(0.018520005 0.034122135 -5.4491109e-21)
(0.018392938 0.034584905 -1.5001048e-25)
(0.018253114 0.0350642 4.9158137e-21)
(0.018141281 0.035522697 -3.6734198e-40)
(0.017973344 0.036041299 1.0366226e-20)
(0.017820202 0.036535309 -1.5003753e-25)
(0.017666924 0.037053274 5.450575e-21)
(0.017478251 0.03754105 -5.339049e-22)
(0.017289797 0.038029559 0)
(0.017084084 0.038573852 1.0368297e-20)
(0.016896934 0.039079948 5.4516157e-21)
(0.016668519 0.039623626 -4.9175624e-21)
(0.016468688 0.040136728 -1.5008009e-25)
(0.01621956 0.04064364 -4.9177856e-21)
(0.01601898 0.041180495 -5.3418802e-22)
(0.01577618 0.041716032 -5.4524971e-21)
(0.015574505 0.042238251 1.5010143e-25)
(0.015335509 0.042780595 4.4784051e-30)
(0.015123511 0.043270916 -4.9189109e-21)
(0.014885967 0.04382333 -5.453356e-21)
(0.014636927 0.044359244 3.0023699e-25)
(0.014406953 0.044910177 5.4532396e-21)
(0.014151334 0.045423956 1.5012557e-25)
(0.013877613 0.045974915 5.4538653e-21)
(0.013656786 0.046512274 5.4539827e-21)
(0.013419052 0.047056599 0)
(0.013191285 0.047591575 5.4542734e-21)
(0.012964277 0.048114044 0)
(0.014649544 0.056090272 -9.8403526e-21)
(0.014113178 0.055844282 -5.730535e-38)
(0.013581993 0.055595103 0)
(0.013090756 0.055330582 5.455071e-21)
(0.012612217 0.055071447 2.4683835e-30)
(0.012168217 0.054802908 -3.003365e-25)
(0.011730723 0.054519269 -2.5169377e-30)
(0.011337051 0.054239032 5.4554747e-21)
(0.010952598 0.053957919 -4.9209881e-21)
(0.010627697 0.053662752 4.9210108e-21)
(0.010305995 0.053363736 -5.4555735e-21)
(0.009990586 0.053067389 -1.5018311e-25)
(0.0096977441 0.052773031 4.9213968e-21)
(0.0094038535 0.052474049 1.1479437e-41)
(0.0091364611 0.052170548 4.9213346e-21)
(0.0088776947 0.051870026 -5.4558864e-21)
(0.0086093292 0.051574143 -5.3466749e-22)
(0.0083617782 0.051274226 1.0377712e-20)
(0.0081366789 0.050967799 4.9213503e-21)
(0.0079255366 0.050665698 5.4559069e-21)
(0.0076968479 0.050369563 -5.6409037e-31)
(0.0075107075 0.050065331 1.5019465e-25)
(0.0073300232 0.049759108 2.7279329e-21)
(0.0071332715 0.049463805 -2.7280928e-21)
(0.0069679024 0.049163589 -3.0554738e-31)
(0.0068144277 0.048859005 -2.4606792e-21)
(0.0066316339 0.048563911 -1.0044507e-41)
(0.0064696466 0.048267812 -2.460705e-21)
(0.0063050043 0.047973551 -2.7283091e-21)
(0.006126904 0.047681949 2.460871e-21)
(0.0059524922 0.047391607 -9.215692e-38)
(0.0057823222 0.04710265 -5.1890683e-21)
(0.0056111314 0.046817617 2.7281746e-21)
(0.005447272 0.046530459 -2.7281823e-21)
(0.0053051815 0.046239286 -2.6728952e-22)
(0.0051298079 0.045959548 3.324158e-38)
(0.0049709652 0.045677911 -2.6729264e-22)
(0.0047870987 0.045399011 2.4608855e-21)
(0.004602317 0.045122021 2.7281569e-21)
(0.0043910191 0.044849476 5.0222537e-42)
(0.004219025 0.044573841 2.7280058e-21)
(0.0039902156 0.044305894 1.3643758e-21)
(0.0038115495 0.044031769 1.2302633e-21)
(0.0035771925 0.043768805 -1.3642144e-21)
(0.0033771442 0.043496226 1.5019657e-25)
(0.0031563996 0.043232918 1.3640424e-21)
(0.0029386343 0.042967428 1.5019219e-25)
(0.0027149666 0.042705328 -1.5019234e-25)
(0.0024858083 0.042442617 -1.3641524e-21)
(0.0022667341 0.042176362 1.5018934e-25)
(0.0020549117 0.041914413 -1.5018469e-25)
(0.0018578 0.041654862 6.1530486e-22)
(0.0016453644 0.04139316 -6.1514423e-22)
(0.0014370919 0.041133281 -6.8180342e-22)
(0.0012512788 0.040873022 6.8193611e-22)
(0.0010853331 0.040612391 3.0740556e-22)
(0.00090620066 0.04035571 -3.0754914e-22)
(0.00076132768 0.040096901 3.4094923e-22)
(0.00060036599 0.03984077 -1.5016116e-25)
(0.00049958713 0.039582394 -1.5346352e-22)
(0.00039987672 0.039329025 -3.0031004e-25)
(0.00034857344 0.039074448 1.7060677e-22)
(0.00031759452 0.038820406 1.7045157e-22)
(0.00033788154 0.038571737 1.5389655e-22)
(0.00032367483 0.038320306 1.6550574e-23)
(0.00034262704 0.038072032 1.7043557e-22)
(0.00034977708 0.037825248 -1.793662e-42)
(0.00034605246 0.037580224 2.0779472e-41)
(0.00031415166 0.037336931 1.0576738e-38)
(0.00033402983 0.037094421 1.5010742e-25)
(0.00032964346 0.036854285 -1.5400803e-22)
(0.00034485928 0.036614979 3.0019756e-25)
(0.00036077299 0.036377833 -6.7464065e-30)
(0.00042155003 0.036139227 -1.5383707e-22)
(0.00045653395 0.035906666 -3.2405966e-22)
(0.00048750832 0.035672261 6.2639478e-39)
(0.0004460595 0.035441045 1.5006288e-25)
(0.00038538574 0.035212174 1.5336093e-22)
(0.00023843429 0.035404574 -1.7034425e-22)
(9.0356854e-05 0.034338307 1.5004914e-25)
)
;
    }
    defaultFaces
    {
        type            empty;
    }
}


// ************************************************************************* //
