/*--------------------------------*- C++ -*----------------------------------*\
| =========                 |                                                 |
| \\      /  F ield         | OpenFOAM: The Open Source CFD Toolbox           |
|  \\    /   O peration     | Version:  2406                                  |
|   \\  /    A nd           | Website:  www.openfoam.com                      |
|    \\/     M anipulation  |                                                 |
\*---------------------------------------------------------------------------*/
FoamFile
{
    version     2.0;
    format      ascii;
    arch        "LSB;label=32;scalar=64";
    class       volScalarField;
    location    "100";
    object      initialResidual:p;
}
// * * * * * * * * * * * * * * * * * * * * * * * * * * * * * * * * * * * * * //

dimensions      [0 0 0 0 0 0 0];

internalField   nonuniform List<scalar> 
69120
(
-5.8189068e-11
-4.6517669e-11
-9.7615476e-11
-7.0571464e-11
-5.2348792e-11
-1.5034281e-10
-1.0772381e-10
-1.4052208e-10
-1.1518756e-10
-1.5323831e-10
-1.7194148e-10
-1.5091706e-10
-2.3868081e-10
-2.8207657e-10
-4.4538925e-10
-5.9516774e-10
-4.7285809e-10
-4.0989425e-10
-1.2381244e-09
-1.7072203e-10
-5.6221025e-11
-4.2548266e-11
-1.0884645e-10
-7.8065428e-11
-4.0422389e-11
-1.7606615e-10
-1.1635894e-10
-1.6411554e-10
-1.3459296e-10
-1.7519776e-10
-1.9486761e-10
-1.7177762e-10
-2.6665766e-10
-3.1791611e-10
-4.566229e-10
-6.7124869e-10
-5.2378559e-10
-4.6972581e-10
-1.2761173e-09
-3.0194679e-10
-6.2365209e-11
-5.6014042e-11
-1.1289375e-10
-8.8682452e-11
-6.9336046e-11
-1.7915272e-10
-1.3697681e-10
-1.8029633e-10
-1.5085328e-10
-1.9468428e-10
-2.171699e-10
-1.9184439e-10
-2.9563985e-10
-3.5071674e-10
-5.3125036e-10
-6.9549678e-10
-5.7890545e-10
-5.1583633e-10
-1.4360148e-09
-2.9074101e-10
-6.418102e-11
-5.4555696e-11
-1.2115577e-10
-9.5598633e-11
-5.9498778e-11
-1.9581327e-10
-1.4283089e-10
-2.0207974e-10
-1.7107172e-10
-2.1473032e-10
-2.3769499e-10
-2.1390883e-10
-3.2066792e-10
-3.8442503e-10
-5.4857622e-10
-7.7333325e-10
-6.4122172e-10
-5.8183747e-10
-1.3868772e-09
-4.7066201e-10
-7.3996455e-11
-7.5845633e-11
-1.2510571e-10
-1.0816833e-10
-1.0095677e-10
-1.924563e-10
-1.6680026e-10
-2.1765561e-10
-1.8939007e-10
-2.3643071e-10
-2.6273021e-10
-2.4415795e-10
-3.5987062e-10
-4.2878403e-10
-6.6311106e-10
-7.9363108e-10
-7.1035507e-10
-6.5661089e-10
-1.5233385e-09
-4.8441641e-10
-7.2463731e-11
-6.997531e-11
-1.3319979e-10
-1.1497821e-10
-8.0394176e-11
-2.1218485e-10
-1.7011473e-10
-2.4281342e-10
-2.1370927e-10
-2.5800191e-10
-2.8362002e-10
-2.6672251e-10
-3.8251697e-10
-4.6201545e-10
-6.4720782e-10
-8.6578023e-10
-7.6520657e-10
-7.286666e-10
-1.4078573e-09
-7.2675668e-10
-9.1153578e-11
-9.67171e-11
-1.3862208e-10
-1.3125863e-10
-1.3273007e-10
-2.0888403e-10
-2.0225611e-10
-2.6038663e-10
-2.3574391e-10
-2.8326961e-10
-3.1371358e-10
-3.0334605e-10
-4.3036843e-10
-5.1543528e-10
-7.8099536e-10
-8.9326641e-10
-8.4908362e-10
-8.1839919e-10
-1.562934e-09
-7.4829041e-10
-9.7316566e-11
-8.9338773e-11
-1.4860876e-10
-1.3896922e-10
-1.06363e-10
-2.3321666e-10
-2.0366415e-10
-2.9191127e-10
-2.6611788e-10
-3.0995899e-10
-3.37957e-10
-3.2948957e-10
-4.5470661e-10
-5.5356887e-10
-7.5390028e-10
-9.8555427e-10
-9.1171313e-10
-9.044866e-10
-1.4415992e-09
-1.0308734e-09
-1.1966064e-10
-1.2355352e-10
-1.5923365e-10
-1.5985951e-10
-1.7205399e-10
-2.3542309e-10
-2.449066e-10
-3.1332815e-10
-2.9263463e-10
-3.4106568e-10
-3.7538341e-10
-3.7569267e-10
-5.1422358e-10
-6.2005136e-10
-9.2159267e-10
-1.0296629e-09
-1.0151607e-09
-1.0168222e-09
-1.6416414e-09
-1.059255e-09
-1.1557698e-10
-1.1451336e-10
-1.706183e-10
-1.6929579e-10
-1.4011262e-10
-2.6299405e-10
-2.4552915e-10
-3.5243729e-10
-3.3021554e-10
-3.743269e-10
-4.0446691e-10
-4.0500986e-10
-5.4257787e-10
-6.6590233e-10
-8.8987389e-10
-1.1405268e-09
-1.0901266e-09
-1.1173804e-09
-1.5404661e-09
-1.3703291e-09
-1.4096328e-10
-1.5554464e-10
-1.8722127e-10
-1.9644654e-10
-2.1770761e-10
-2.7242752e-10
-2.9939568e-10
-3.7835461e-10
-3.6179768e-10
-4.1184674e-10
-4.5135446e-10
-4.6102094e-10
-6.176297e-10
-7.4929146e-10
-1.0910606e-09
-1.2057524e-09
-1.2195106e-09
-1.2539593e-09
-1.7933954e-09
-1.4071638e-09
-1.3689924e-10
-1.4572202e-10
-2.0033109e-10
-2.0755839e-10
-1.8196685e-10
-3.03037e-10
-2.9780439e-10
-4.2610174e-10
-4.0751765e-10
-4.5317429e-10
-4.8525889e-10
-4.9410506e-10
-6.4937809e-10
-8.030498e-10
-1.0611929e-09
-1.3336139e-09
-1.3072146e-09
-1.3721051e-09
-1.7178815e-09
-1.747929e-09
-1.7021307e-10
-1.9538584e-10
-2.2620183e-10
-2.4137273e-10
-2.7343092e-10
-3.2491744e-10
-3.6436477e-10
-4.5755226e-10
-4.4458142e-10
-4.9808813e-10
-5.4242256e-10
-5.6263769e-10
-7.4047461e-10
-9.0465342e-10
-1.3014894e-09
-1.4281416e-09
-1.4640551e-09
-1.541046e-09
-2.0176123e-09
-1.8092497e-09
-1.6575185e-10
-1.8428269e-10
-2.3941117e-10
-2.5534974e-10
-2.3391176e-10
-3.5566544e-10
-3.6201269e-10
-5.1523096e-10
-5.0067707e-10
-5.4910529e-10
-5.8242326e-10
-5.992288e-10
-7.7769471e-10
-9.6870209e-10
-1.2738803e-09
-1.5701333e-09
-1.5686321e-09
-1.6776604e-09
-1.9746591e-09
-2.1793904e-09
-2.0831336e-10
-2.4260884e-10
-2.7488204e-10
-2.9855719e-10
-3.3950799e-10
-3.9071211e-10
-4.4666221e-10
-5.5369431e-10
-5.4480816e-10
-6.0228845e-10
-6.5316341e-10
-6.8127131e-10
-8.9046775e-10
-1.0940557e-09
-1.5535945e-09
-1.6976018e-09
-1.7623534e-09
-1.882768e-09
-2.3246441e-09
-2.2724398e-09
-2.0069545e-10
-2.3129209e-10
-2.8896364e-10
-3.1524069e-10
-2.9817487e-10
-4.2255445e-10
-4.4156205e-10
-6.2318134e-10
-6.1368984e-10
-6.6543831e-10
-6.9954292e-10
-7.2327712e-10
-9.3229901e-10
-1.1685051e-09
-1.5334103e-09
-1.8572021e-09
-1.883921e-09
-2.0441877e-09
-2.3158865e-09
-2.6823078e-09
-2.5165787e-10
-3.0159394e-10
-3.3833816e-10
-3.6871987e-10
-4.2183216e-10
-4.7760533e-10
-5.4522795e-10
-6.7042307e-10
-6.6651189e-10
-7.2871542e-10
-7.8568418e-10
-8.2353093e-10
-1.0683706e-09
-1.3199281e-09
-1.8629826e-09
-2.0295965e-09
-2.1182895e-09
-2.2993749e-09
-2.7111242e-09
-2.8294124e-09
-2.4085118e-10
-2.8858076e-10
-3.5167362e-10
-3.8964358e-10
-3.7835973e-10
-5.0825811e-10
-5.391986e-10
-7.5429853e-10
-7.5130056e-10
-8.0652736e-10
-8.4067773e-10
-8.7089208e-10
-1.1176858e-09
-1.4080452e-09
-1.8492197e-09
-2.2073214e-09
-2.2630258e-09
-2.4864876e-09
-2.7488671e-09
-3.2821815e-09
-3.0329696e-10
-3.7109883e-10
-4.151337e-10
-4.5723128e-10
-5.2166227e-10
-5.8419486e-10
-6.69241e-10
-8.1336054e-10
-8.1532168e-10
-8.8154265e-10
-9.4719744e-10
-9.9133737e-10
-1.2850757e-09
-1.5933095e-09
-2.2324516e-09
-2.4285712e-09
-2.552247e-09
-2.7980518e-09
-3.2001434e-09
-3.4906241e-09
-2.869132e-10
-3.5686603e-10
-4.290897e-10
-4.8263855e-10
-4.7775522e-10
-6.1658169e-10
-6.6092301e-10
-9.1369077e-10
-9.1942281e-10
-9.7821148e-10
-1.0120003e-09
-1.0468266e-09
-1.3418588e-09
-1.6960377e-09
-2.2304257e-09
-2.6326682e-09
-2.7219336e-09
-3.0191757e-09
-3.2896023e-09
-4.0027833e-09
-3.6009892e-10
-4.5587157e-10
-5.1240517e-10
-5.6547244e-10
-6.462212e-10
-7.2314843e-10
-8.1886155e-10
-9.8781628e-10
-9.9747404e-10
-1.0678914e-09
-1.1420966e-09
-1.1940441e-09
-1.5431882e-09
-1.9190072e-09
-2.6834655e-09
-2.9202715e-09
-3.071767e-09
-3.4070944e-09
-3.7938952e-09
-4.3039336e-09
-3.3818415e-10
-4.3793252e-10
-5.2369471e-10
-5.9790586e-10
-6.0164242e-10
-7.5423048e-10
-8.1207788e-10
-1.1078389e-09
-1.125874e-09
-1.1881867e-09
-1.2206397e-09
-1.2588832e-09
-1.6127681e-09
-2.041695e-09
-2.6933745e-09
-3.1505473e-09
-3.2768026e-09
-3.6648154e-09
-3.9551588e-09
-4.8755973e-09
-4.261096e-10
-5.5325078e-10
-6.2636604e-10
-7.0175519e-10
-7.9745751e-10
-8.9287068e-10
-1.0092864e-09
-1.2018475e-09
-1.2219701e-09
-1.2963136e-09
-1.3822524e-09
-1.4362984e-09
-1.8609873e-09
-2.3143417e-09
-3.2233913e-09
-3.510074e-09
-3.7104313e-09
-4.1386698e-09
-4.5279188e-09
-5.2774177e-09
-3.9434952e-10
-5.3167247e-10
-6.3525593e-10
-7.4013809e-10
-7.5459656e-10
-9.2621941e-10
-1.001493e-09
-1.3464049e-09
-1.380688e-09
-1.4460432e-09
-1.4768449e-09
-1.5159468e-09
-1.9427027e-09
-2.4578694e-09
-3.2550376e-09
-3.7773498e-09
-3.9496695e-09
-4.4466908e-09
-4.771554e-09
-5.9284723e-09
-4.955106e-10
-6.6880491e-10
-7.631518e-10
-8.6604211e-10
-9.8539948e-10
-1.1090125e-09
-1.2414459e-09
-1.46597e-09
-1.5007855e-09
-1.5776204e-09
-1.6752789e-09
-1.7345875e-09
-2.2429633e-09
-2.7855892e-09
-3.8890212e-09
-4.2322458e-09
-4.4754522e-09
-5.0366982e-09
-5.4111452e-09
-6.4733042e-09
-4.525514e-10
-6.3807038e-10
-7.63872e-10
-9.1218314e-10
-9.4192959e-10
-1.1418095e-09
-1.2369171e-09
-1.6418768e-09
-1.6962694e-09
-1.7639167e-09
-1.7925124e-09
-1.8311643e-09
-2.3442911e-09
-2.9577219e-09
-3.9389496e-09
-4.540492e-09
-4.7611427e-09
-5.3950321e-09
-5.7644337e-09
-7.2064757e-09
-5.7071069e-10
-7.9531011e-10
-9.1392769e-10
-1.0665877e-09
-1.2095123e-09
-1.3703179e-09
-1.5336472e-09
-1.7954658e-09
-1.8465884e-09
-1.9258996e-09
-2.0399445e-09
-2.0974984e-09
-2.7155101e-09
-3.3582339e-09
-4.6874039e-09
-5.0996074e-09
-5.4115944e-09
-6.1138625e-09
-6.4914353e-09
-7.9079699e-09
-5.094026e-10
-7.5292886e-10
-9.0399316e-10
-1.1176208e-09
-1.1657634e-09
-1.4073919e-09
-1.5298599e-09
-2.0052279e-09
-2.0871855e-09
-2.1572348e-09
-2.1841214e-09
-2.2195141e-09
-2.8379414e-09
-3.5607861e-09
-4.7673272e-09
-5.4683157e-09
-5.745136e-09
-6.5377248e-09
-6.9707914e-09
-8.7540699e-09
-6.3986068e-10
-9.3466226e-10
-1.0807549e-09
-1.2993054e-09
-1.4770525e-09
-1.6969353e-09
-1.884766e-09
-2.2007934e-09
-2.276709e-09
-2.3567267e-09
-2.4894786e-09
-2.549952e-09
-3.2878588e-09
-4.0440199e-09
-5.6685892e-09
-6.1703018e-09
-6.5327011e-09
-7.4250904e-09
-7.7836492e-09
-9.6778651e-09
-5.5449797e-10
-8.6926571e-10
-1.0475538e-09
-1.3553624e-09
-1.4263461e-09
-1.7325873e-09
-1.8856959e-09
-2.4472685e-09
-2.5702503e-09
-2.6440148e-09
-2.6706945e-09
-2.7029213e-09
-3.4450933e-09
-4.2891499e-09
-5.7780237e-09
-6.6015815e-09
-6.9364376e-09
-7.9185183e-09
-8.4288464e-09
-1.0632347e-08
-6.9647289e-10
-1.0674108e-09
-1.2413326e-09
-1.5710005e-09
-1.7775037e-09
-2.083769e-09
-2.3164216e-09
-2.6893073e-09
-2.8055672e-09
-2.8934298e-09
-3.0522008e-09
-3.1077422e-09
-4.0055761e-09
-4.8829301e-09
-6.848961e-09
-7.4622938e-09
-7.9160421e-09
-8.9919311e-09
-9.3544635e-09
-1.1797028e-08
-5.6850099e-10
-9.6759407e-10
-1.1735697e-09
-1.622718e-09
-1.7141926e-09
-2.1209079e-09
-2.3133423e-09
-2.9818779e-09
-3.1613675e-09
-3.2476833e-09
-3.2791815e-09
-3.305933e-09
-4.2020751e-09
-5.1783286e-09
-7.010824e-09
-7.9820752e-09
-8.3878838e-09
-9.5832006e-09
-1.019249e-08
-1.2894602e-08
-7.0222052e-10
-1.1741894e-09
-1.3788133e-09
-1.8658838e-09
-2.1074361e-09
-2.5485296e-09
-2.8151823e-09
-3.2842896e-09
-3.4534977e-09
-3.5583964e-09
-3.7512565e-09
-3.8114559e-09
-4.8921403e-09
-5.9018339e-09
-8.3141779e-09
-9.0567046e-09
-9.582018e-09
-1.0905559e-08
-1.1234171e-08
-1.4388254e-08
-5.0397282e-10
-9.9597059e-10
-1.2404027e-09
-1.9071315e-09
-2.0111971e-09
-2.5731398e-09
-2.811431e-09
-3.6265264e-09
-3.8757384e-09
-3.9933616e-09
-4.0392291e-09
-4.063235e-09
-5.1511431e-09
-6.2702438e-09
-8.5261696e-09
-9.6750483e-09
-1.0153653e-08
-1.1601092e-08
-1.2324987e-08
-1.5624131e-08
-5.9776671e-10
-1.1536183e-09
-1.4086281e-09
-2.1781574e-09
-2.4293635e-09
-3.0687451e-09
-3.4053317e-09
-3.9907155e-09
-4.2277817e-09
-4.3805629e-09
-4.6257015e-09
-4.6859773e-09
-6.0170049e-09
-7.1664356e-09
-1.0090234e-08
-1.0988061e-08
-1.1641669e-08
-1.3206045e-08
-1.3523953e-08
-1.7474399e-08
-2.5872313e-10
-8.7250806e-10
-1.1219936e-09
-2.1803831e-09
-2.2785656e-09
-3.0703303e-09
-3.3751256e-09
-4.399932e-09
-4.7196063e-09
-4.8992494e-09
-4.9774732e-09
-5.0108041e-09
-6.3424538e-09
-7.6113536e-09
-1.0385294e-08
-1.1748153e-08
-1.2316507e-08
-1.4047918e-08
-1.4918082e-08
-1.8898736e-08
-2.2078822e-10
-1.116933e-09
-1.1867164e-09
-2.4468136e-09
-2.7055355e-09
-3.636421e-09
-4.0493832e-09
-4.8355968e-09
-5.1355145e-09
-5.3628894e-09
-5.6880597e-09
-5.7848199e-09
-7.4004681e-09
-8.705442e-09
-1.2296572e-08
-1.3390305e-08
-1.4128913e-08
-1.602243e-08
-1.6295374e-08
-2.1238347e-08
3.8280938e-10
-8.0811429e-10
-7.7561502e-10
-2.3554379e-09
-2.4465095e-09
-3.574699e-09
-3.9779479e-09
-5.3172465e-09
-5.6842612e-09
-5.9649849e-09
-6.1050878e-09
-6.1845326e-09
-7.8120551e-09
-9.2432043e-09
-1.2669659e-08
-1.4300596e-08
-1.4954385e-08
-1.7030369e-08
-1.8067339e-08
-2.2840219e-08
7.0755542e-10
-1.063941e-10
-9.420313e-10
-2.5168019e-09
-2.8042725e-09
-4.1623357e-09
-4.7495569e-09
-5.8207286e-09
-6.1451369e-09
-6.5121481e-09
-6.9474083e-09
-7.1166167e-09
-9.1177992e-09
-1.0577724e-08
-1.4954296e-08
-1.6312982e-08
-1.7211452e-08
-1.9412369e-08
-1.9679673e-08
-2.5713786e-08
1.8164002e-09
3.2183344e-09
3.3113067e-11
-2.3448051e-09
-2.2656342e-09
-3.9715008e-09
-4.5901682e-09
-6.3899433e-09
-6.7307629e-09
-7.1793617e-09
-7.4177157e-09
-7.5995085e-09
-9.6123587e-09
-1.1221149e-08
-1.5436893e-08
-1.7436402e-08
-1.8174945e-08
-2.0651772e-08
-2.1894733e-08
-2.7551053e-08
2.7291307e-09
1.6982826e-09
2.4545442e-09
-2.5146077e-09
-2.4178099e-09
-4.5061454e-09
-5.4201296e-09
-6.9604686e-09
-7.2164802e-09
-7.7917598e-09
-8.3829449e-09
-8.7180732e-09
-1.1173683e-08
-1.2829575e-08
-1.8198061e-08
-1.9952941e-08
-2.091158e-08
-2.357186e-08
-2.3783052e-08
-3.1112338e-08
4.6370108e-09
-2.7521308e-09
4.7026257e-09
-2.0764136e-09
-1.5150161e-09
-4.0159266e-09
-5.1294387e-09
-7.6173982e-09
-7.8029656e-09
-8.5247877e-09
-8.8807064e-09
-9.2651416e-09
-1.1773665e-08
-1.3604381e-08
-1.8744994e-08
-2.1304105e-08
-2.2061716e-08
-2.5059031e-08
-2.655512e-08
-3.3113715e-08
6.3959102e-09
-1.4353793e-09
4.9376706e-09
-2.1340893e-09
-1.2660926e-09
-4.3102852e-09
-5.9958913e-09
-8.2411915e-09
-8.2935069e-09
-9.2227619e-09
-9.9425678e-09
-1.0546721e-08
-1.3659415e-08
-1.5550872e-08
-2.1970996e-08
-2.4382997e-08
-2.5424398e-08
-2.8575348e-08
-2.880993e-08
-3.732463e-08
9.4820136e-09
3.6374986e-09
7.639812e-09
-1.6341287e-09
2.2797672e-10
-3.4086405e-09
-5.3362168e-09
-9.0382157e-09
-8.8569583e-09
-1.0018399e-08
-1.0461388e-08
-1.1122586e-08
-1.4303085e-08
-1.6505799e-08
-2.2564516e-08
-2.6068173e-08
-2.6720082e-08
-3.038648e-08
-3.2260677e-08
-3.9433478e-08
1.2282328e-08
6.476989e-09
1.1221785e-08
-1.8601196e-09
4.7343248e-10
-3.5399433e-09
-5.7674366e-09
-9.7130762e-09
-9.3869784e-09
-1.0802718e-08
-1.1628846e-08
-1.2589214e-08
-1.6438058e-08
-1.8838887e-08
-2.6340713e-08
-2.9950546e-08
-3.0736856e-08
-3.4641339e-08
-3.49921e-08
-4.4334771e-08
1.5017922e-08
1.0243701e-08
1.954258e-08
5.2011426e-10
1.8851403e-09
-1.8185092e-09
-4.7809757e-09
-1.0398544e-08
-1.0034395e-08
-1.1685325e-08
-1.2169155e-08
-1.3158567e-08
-1.7076881e-08
-2.0062648e-08
-2.6791439e-08
-3.2051009e-08
-3.2291015e-08
-3.6769808e-08
-3.9243131e-08
-4.623352e-08
1.5754967e-08
8.9276851e-09
1.242018e-08
1.3187395e-08
3.7254529e-09
-1.8776486e-09
-5.5878766e-09
-1.0355273e-08
-1.0790317e-08
-1.2657546e-08
-1.3477269e-08
-1.4769065e-08
-1.9448245e-08
-2.2936108e-08
-3.0945899e-08
-3.6861624e-08
-3.7291291e-08
-4.1787773e-08
-4.2638414e-08
-5.1506173e-08
5.7865979e-08
-1.5377801e-08
3.4746431e-09
1.4104193e-08
5.3113103e-09
-5.1629189e-10
-3.453053e-09
-1.0647639e-08
-1.1696798e-08
-1.3781023e-08
-1.4145316e-08
-1.5331851e-08
-1.982615e-08
-2.4457498e-08
-3.1186969e-08
-3.9582433e-08
-3.9255123e-08
-4.4303982e-08
-4.7953465e-08
-5.2811402e-08
7.2211249e-08
3.8606339e-08
-5.3446421e-08
1.5464071e-08
1.18895e-08
3.503583e-10
-3.0739253e-09
-1.0923873e-08
-1.2701926e-08
-1.5228685e-08
-1.580436e-08
-1.7201082e-08
-2.2200131e-08
-2.7819034e-08
-3.5719058e-08
-4.5679999e-08
-4.5746669e-08
-5.0404586e-08
-5.2264728e-08
-5.8240774e-08
4.5450741e-08
5.3403995e-08
3.1208027e-08
-2.0820436e-08
4.224315e-09
2.5482298e-09
-1.1033314e-09
-1.1367485e-08
-1.3541555e-08
-1.6633643e-08
-1.7047602e-08
-1.7908248e-08
-2.2183086e-08
-2.9526418e-08
-3.5515744e-08
-4.8869619e-08
-4.8926043e-08
-5.3655528e-08
-5.9177856e-08
-5.8324096e-08
4.599212e-08
-1.5027321e-09
1.0122651e-07
-2.2744055e-08
3.9579553e-09
2.7293486e-09
-1.2888646e-09
-1.1259903e-08
-1.5764486e-08
-1.7400636e-08
-1.9543994e-08
-2.0334891e-08
-2.4639821e-08
-3.3102373e-08
-4.032845e-08
-5.5921734e-08
-5.7888748e-08
-6.135476e-08
-6.5352567e-08
-6.3704648e-08
3.6335236e-08
3.6248902e-08
9.4179424e-09
3.076964e-08
1.9424025e-08
4.9317933e-09
7.1751478e-11
-1.2203556e-08
-1.4862627e-08
-2.0052087e-08
-2.1552629e-08
-2.1651351e-08
-2.441003e-08
-3.4461521e-08
-3.9621914e-08
-5.8982415e-08
-6.2791209e-08
-6.6275564e-08
-7.4769855e-08
-6.3221599e-08
2.8506895e-08
4.4154601e-08
3.1632608e-08
1.7711656e-08
6.7179588e-09
3.7945134e-09
-1.6677968e-10
-9.7970793e-09
-1.6356671e-08
-2.3111701e-08
-2.4464711e-08
-2.4740803e-08
-2.7909978e-08
-3.7500128e-08
-4.4732841e-08
-6.6079368e-08
-7.4394354e-08
-7.6888565e-08
-8.3874018e-08
-7.0153556e-08
2.8281334e-08
3.6346592e-08
3.9015647e-08
2.4319059e-08
7.8130277e-10
-2.7949052e-09
1.8934864e-09
-9.6061462e-09
-1.568936e-08
-2.4465467e-08
-2.6769728e-08
-2.5548832e-08
-3.0012939e-08
-3.7921981e-08
-4.3624258e-08
-6.7313354e-08
-8.0303095e-08
-8.4248484e-08
-9.7145707e-08
-7.1397819e-08
3.3901299e-08
2.7811679e-08
-1.4056411e-08
5.159904e-08
6.3791034e-08
-2.4939549e-08
-7.1566588e-09
-1.6955354e-08
-1.8838151e-08
-2.4675038e-08
-2.7062228e-08
-3.3570007e-08
-3.2735009e-08
-3.9742113e-08
-5.0456889e-08
-7.2635419e-08
-9.2646285e-08
-9.7729442e-08
-1.099299e-07
-8.3289111e-08
2.071403e-08
1.721382e-08
-8.0587929e-09
3.8500299e-08
4.3353638e-08
-4.7434214e-08
3.4191728e-08
6.5225044e-09
-1.7108082e-08
-2.5457887e-08
-2.9752697e-08
-3.3075766e-08
-3.1092457e-08
-4.29422e-08
-4.8311387e-08
-7.0522593e-08
-9.6321635e-08
-1.0584035e-07
-1.265815e-07
-8.9723007e-08
7.0934139e-09
2.5083153e-08
5.567815e-08
-2.9290553e-08
-3.4955296e-08
-1.7558964e-08
2.2986077e-08
3.1450915e-08
-5.5100828e-09
-2.451569e-08
-3.0716971e-08
-3.4878011e-08
-3.6232905e-08
-4.4453217e-08
-5.3131561e-08
-7.2677395e-08
-1.0714672e-07
-1.1822355e-07
-1.4167279e-07
-1.0779236e-07
1.6907818e-08
2.9648185e-08
3.5796363e-08
-1.7895286e-08
-5.9772144e-09
5.8560463e-08
-4.2136361e-08
-2.5696802e-08
-6.5745404e-10
-1.8581332e-08
-2.5895095e-08
-3.2368921e-08
-3.4597363e-08
-4.2607511e-08
-4.8253438e-08
-6.8456518e-08
-1.0598094e-07
-1.1991595e-07
-1.6225159e-07
-1.14483e-07
2.1633204e-08
1.0212209e-08
9.75412e-09
2.2719317e-08
1.2046212e-08
5.2128802e-08
-3.3132425e-08
-4.1510066e-08
-1.3279391e-09
-2.843182e-08
-3.1648084e-08
-3.3243691e-08
-3.6156188e-08
-4.1592276e-08
-5.0076285e-08
-7.1177444e-08
-1.0566439e-07
-1.3048519e-07
-1.6934815e-07
-1.3246406e-07
1.9728227e-08
3.781294e-09
1.8764744e-08
2.4437245e-08
1.3021089e-08
9.61825e-09
5.1800788e-09
-9.6896562e-09
-2.8538359e-08
-1.006751e-08
-3.1527876e-08
-3.2671076e-08
-3.5651741e-08
-4.0991879e-08
-3.8091982e-08
-6.064642e-08
-9.679332e-08
-1.2459016e-07
-1.6977267e-07
-1.4667042e-07
1.1539366e-08
1.0122206e-08
1.723767e-08
1.476275e-08
9.2092465e-09
7.5333919e-09
5.3221537e-09
-7.0699479e-09
-2.7479256e-08
-2.6727233e-09
-2.727712e-08
-4.6764786e-09
-2.3707564e-08
-7.1090586e-08
-5.6460364e-08
-5.4364425e-08
-9.6509531e-08
-1.2289567e-07
-1.6361832e-07
-1.6225577e-07
1.0199457e-08
1.1242357e-08
1.348129e-08
1.3484523e-08
1.2630678e-08
8.9351953e-09
5.2745559e-09
-6.3780376e-09
-3.5520519e-09
-2.0346143e-08
-2.3258539e-08
-7.2662765e-09
-3.9932786e-08
4.640481e-09
-7.6102211e-08
-5.666038e-08
-9.3236719e-08
-1.0975892e-07
-1.565837e-07
-1.6240659e-07
7.3176238e-09
1.1058348e-08
1.0746594e-08
1.3617322e-08
1.1634601e-08
8.8256627e-09
5.1627548e-09
-5.0587294e-09
-4.6207413e-09
-1.7992583e-08
-1.333283e-08
-4.1888206e-08
-5.5166072e-08
2.9623526e-08
-6.361999e-08
2.0909777e-08
-2.1859689e-07
-8.8134208e-08
-1.0289982e-07
-1.6413032e-07
5.2057165e-09
1.1894535e-08
9.6459099e-09
1.3844053e-08
1.0828675e-08
1.164159e-08
6.8147934e-09
-1.6122484e-09
-3.1663799e-09
-1.2159457e-08
-1.5841324e-08
-3.0608792e-08
-1.8387589e-08
-5.7547543e-08
-3.5474952e-08
6.1072669e-08
-1.6427529e-07
-2.2320118e-07
-3.9915327e-08
-1.2535453e-07
2.859693e-09
1.2065408e-08
7.9750894e-09
1.3009762e-08
8.7228787e-09
1.3147823e-08
5.268836e-09
2.0494425e-09
-2.1539307e-09
-1.0412421e-08
-1.2697545e-08
-2.3074883e-08
-2.5899504e-08
-4.6056787e-08
-2.0289303e-08
-8.1157015e-08
8.4382826e-09
-4.4281052e-08
-1.4082658e-07
-1.6787599e-07
1.2121892e-09
1.2453808e-08
7.5326434e-09
1.2631442e-08
8.7735883e-09
1.491118e-08
5.9768475e-09
5.6735238e-09
-5.4203977e-10
-6.6981706e-09
-6.8106376e-09
-2.2660376e-08
-1.3681541e-08
-3.9718577e-08
-6.3476034e-09
-1.1376482e-07
3.8400247e-08
1.327459e-07
-2.9518408e-07
-9.7254829e-08
-3.8720064e-10
1.1825392e-08
7.6156815e-09
1.0411719e-08
9.2802978e-09
1.3263599e-08
6.7177313e-09
7.4565177e-09
5.9920609e-11
-3.9930793e-09
-5.1936516e-09
-2.1494429e-08
-1.2295432e-08
-3.7654298e-08
-1.8410654e-08
-6.0882451e-08
1.0583776e-09
-1.1532668e-07
-1.954383e-07
-7.3642799e-08
-1.3548743e-09
1.1355502e-08
8.4172065e-09
8.9912328e-09
1.1004253e-08
1.2314439e-08
9.6187759e-09
8.6498911e-09
2.1346445e-09
3.2001417e-10
-2.8078054e-09
-1.5115863e-08
-7.7733766e-09
-3.1034607e-08
-1.3345531e-08
-3.3512425e-08
-1.7719781e-08
-1.0529201e-07
-8.2949638e-08
-2.0558376e-07
-2.3016805e-09
1.0490888e-08
8.2152598e-09
8.119656e-09
1.041981e-08
1.1768179e-08
1.0411301e-08
9.3522911e-09
3.8662114e-09
2.0700197e-09
-1.9342341e-09
-1.1545312e-08
-1.0131873e-08
-2.8612951e-08
-1.3773267e-08
-4.3042897e-08
-2.0760914e-08
-8.6041634e-08
-3.9836757e-08
-2.0237055e-07
-2.791257e-09
9.418221e-09
8.0457511e-09
7.7952013e-09
1.0392154e-08
1.2370536e-08
1.2456781e-08
1.0253022e-08
6.8849884e-09
5.7936023e-09
-9.3201622e-10
-1.6746027e-09
-1.2550676e-08
-1.0446305e-08
-1.9779947e-08
-2.0837768e-08
-2.2533564e-08
-4.9079853e-08
-6.1193091e-08
-1.3594803e-07
-3.2463129e-09
8.3270048e-09
7.8561183e-09
6.8069732e-09
1.0278668e-08
1.1307332e-08
1.3923032e-08
1.0005086e-08
9.3945902e-09
7.2916938e-09
-9.8622949e-10
4.0103211e-09
-1.814772e-08
-2.6353325e-09
-2.8434494e-08
-1.6109397e-08
-2.8858476e-08
-4.5136448e-08
-5.0907045e-08
-1.4052978e-07
-3.3666742e-09
7.3362614e-09
8.0671892e-09
6.5816385e-09
1.0995861e-08
1.1034014e-08
1.583769e-08
1.0566542e-08
1.1932449e-08
9.1490472e-09
2.6834805e-09
5.9280061e-09
-9.1596227e-09
-2.9757783e-09
-1.1729841e-08
-1.7909388e-08
-5.5738966e-09
-4.248396e-08
-3.4805659e-08
-1.1670294e-07
-3.4434851e-09
6.0861603e-09
8.0039845e-09
6.6434626e-09
1.0868616e-08
1.1056694e-08
1.5711485e-08
1.1605438e-08
1.2964605e-08
9.4120954e-09
6.0505695e-09
3.7177007e-09
-3.7004487e-09
-9.7255944e-09
-5.4543141e-09
-2.4610514e-08
-7.6148174e-09
-3.3985395e-08
-4.1698571e-08
-8.221746e-08
-3.3610602e-09
5.6763219e-09
8.1853747e-09
7.3888549e-09
1.071462e-08
1.2097206e-08
1.5190034e-08
1.3440352e-08
1.3528008e-08
1.1021911e-08
9.3172274e-09
4.507376e-09
2.8937164e-09
-5.5109673e-09
-4.6477463e-10
-1.0416435e-08
-6.9135049e-09
-7.8726225e-09
-4.4631711e-08
-5.7077716e-08
-3.371763e-09
5.3427774e-09
7.7160573e-09
7.6393498e-09
1.0050244e-08
1.2579916e-08
1.4195791e-08
1.4639611e-08
1.3752618e-08
1.2100874e-08
1.0824107e-08
5.8432496e-09
2.3294097e-09
-3.0060472e-09
-6.0730357e-09
-5.6750598e-09
-1.5896944e-08
-2.7849018e-09
-3.5378045e-08
-6.154382e-08
-3.1615739e-09
4.911491e-09
6.9616405e-09
7.5601312e-09
9.711853e-09
1.3044795e-08
1.4364859e-08
1.5975543e-08
1.4994057e-08
1.4370676e-08
1.3074415e-08
8.8223287e-09
6.1312688e-09
2.7268853e-09
-1.3585399e-09
3.0486248e-09
-7.6093698e-09
6.5547379e-09
-2.1478863e-08
-5.4337245e-08
-2.9625484e-09
4.4943994e-09
6.2558458e-09
7.1930678e-09
9.3105826e-09
1.2935038e-08
1.44659e-08
1.6603321e-08
1.6058615e-08
1.5875641e-08
1.4498324e-08
1.0936288e-08
6.6246848e-09
3.3669959e-09
-2.0514159e-09
1.0557567e-09
-9.3207858e-09
4.8053822e-09
-1.3428027e-08
-5.3002067e-08
-3.0422248e-09
4.0202018e-09
5.6775575e-09
6.7004123e-09
8.9383937e-09
1.281252e-08
1.4909191e-08
1.749571e-08
1.7595294e-08
1.8067705e-08
1.6661144e-08
1.3823903e-08
1.0742019e-08
7.2866204e-09
4.1275735e-09
5.9185238e-09
-1.2901278e-09
1.2930219e-08
-5.9595836e-09
-4.1031189e-08
-2.9537875e-09
3.6515323e-09
5.1513856e-09
6.1320005e-09
8.5022412e-09
1.2404424e-08
1.4876456e-08
1.7723444e-08
1.8385278e-08
1.9297218e-08
1.7902661e-08
1.5858969e-08
1.1729213e-08
7.9660098e-09
4.2141497e-09
4.2857217e-09
-2.4576669e-09
1.1769097e-08
-1.1518209e-09
-3.9973706e-08
-2.5261036e-09
3.2778114e-09
4.7556033e-09
5.5611046e-09
8.0478233e-09
1.2001174e-08
1.4858733e-08
1.8030887e-08
1.9293043e-08
2.085383e-08
1.9741507e-08
1.8503494e-08
1.5240239e-08
1.1877116e-08
9.6902932e-09
9.0197949e-09
3.8609645e-09
1.900913e-08
3.6678345e-09
-3.0998904e-08
-2.3187055e-09
2.9644733e-09
4.45687e-09
5.0333919e-09
7.5793e-09
1.1445988e-08
1.466069e-08
1.7922909e-08
1.9659872e-08
2.1647475e-08
2.081551e-08
2.0333876e-08
1.6572988e-08
1.3282896e-08
1.0631863e-08
8.6814173e-09
3.9405421e-09
1.8263103e-08
7.5670054e-09
-3.3555463e-08
-2.1410034e-09
2.5111542e-09
4.2794418e-09
4.4217971e-09
6.9149343e-09
1.0608949e-08
1.4230475e-08
1.7819267e-08
2.0211104e-08
2.2907558e-08
2.2697384e-08
2.3169547e-08
2.023762e-08
1.7926528e-08
1.6171845e-08
1.4253917e-08
9.9492838e-09
2.4532287e-08
1.1644821e-08
-2.9003556e-08
-2.2414047e-09
2.0589987e-09
4.040824e-09
3.9508719e-09
6.3670137e-09
9.8854007e-09
1.3755007e-08
1.7488794e-08
2.0468416e-08
2.3563525e-08
2.3938335e-08
2.5194375e-08
2.2374157e-08
2.0595516e-08
1.8402776e-08
1.6147614e-08
1.163956e-08
2.5170657e-08
1.6062261e-08
-3.4243486e-08
-2.4382239e-09
1.8763058e-09
3.6350961e-09
3.3473052e-09
6.0501551e-09
9.1885654e-09
1.3153895e-08
1.6817446e-08
2.0410721e-08
2.396987e-08
2.5302257e-08
2.743593e-08
2.578978e-08
2.5066467e-08
2.3928964e-08
2.2120659e-08
1.7691304e-08
3.1806576e-08
2.0251993e-08
-3.2538306e-08
-2.1980678e-09
1.7618711e-09
2.9903639e-09
2.7466952e-09
5.6179585e-09
8.5102837e-09
1.243776e-08
1.6074306e-08
2.0098813e-08
2.3921108e-08
2.6083899e-08
2.8883563e-08
2.7911395e-08
2.7891703e-08
2.6866992e-08
2.5493308e-08
2.0652256e-08
3.4761121e-08
2.5418421e-08
-3.9073452e-08
-1.9973424e-09
1.4085137e-09
2.7837939e-09
2.3672789e-09
5.3432495e-09
7.6936621e-09
1.172514e-08
1.4888591e-08
1.949915e-08
2.3407437e-08
2.654632e-08
3.0118272e-08
3.041619e-08
3.1695125e-08
3.1885519e-08
3.1633454e-08
2.6954378e-08
4.1893025e-08
3.1520318e-08
-4.0035914e-08
-2.0488536e-09
1.1453976e-09
2.6108238e-09
1.7641854e-09
4.9916908e-09
6.8069187e-09
1.0882028e-08
1.3815784e-08
1.8911813e-08
2.2801986e-08
2.7026954e-08
3.0943687e-08
3.246865e-08
3.4350033e-08
3.562523e-08
3.5920219e-08
3.121709e-08
4.701285e-08
3.7592591e-08
-4.6017763e-08
-2.0112686e-09
1.0395568e-09
2.3863553e-09
1.0184583e-09
4.4774863e-09
5.7759269e-09
1.0226532e-08
1.2525649e-08
1.8248008e-08
2.1799592e-08
2.7257855e-08
3.1502914e-08
3.4605418e-08
3.7478769e-08
4.0689638e-08
4.2321796e-08
3.7647856e-08
5.6053195e-08
4.4778012e-08
-4.7199374e-08
-1.9006067e-09
9.378735e-10
2.2841888e-09
7.1444499e-10
4.520976e-09
4.2255801e-09
9.9451886e-09
1.0387136e-08
1.8102962e-08
1.9843935e-08
2.764926e-08
3.1638883e-08
3.6718473e-08
3.9977887e-08
4.5150355e-08
4.7323989e-08
4.2876692e-08
6.3551721e-08
5.2160711e-08
-5.224841e-08
-1.6442257e-09
9.5067546e-10
1.5556951e-09
9.7896971e-10
3.221587e-09
3.5100518e-09
8.5664052e-09
9.3904498e-09
1.7337253e-08
1.7834655e-08
3.0368783e-08
3.0367787e-08
3.9447872e-08
4.1852216e-08
5.1065859e-08
5.3064239e-08
5.0195982e-08
7.32789e-08
6.150576e-08
-5.4711876e-08
-1.4658733e-09
7.7152031e-10
6.0468827e-10
6.2396897e-10
1.7675282e-09
3.8330898e-09
6.5862016e-09
1.0235977e-08
1.4931884e-08
2.0279104e-08
2.779876e-08
3.1503621e-08
4.2507177e-08
4.2092527e-08
5.9521423e-08
5.6938089e-08
5.7212564e-08
8.2324215e-08
7.0854992e-08
-5.9724542e-08
-1.4461925e-09
5.9681759e-10
3.3747455e-10
3.4961621e-10
1.345219e-09
3.3241689e-09
5.9691365e-09
9.4451884e-09
1.4220102e-08
1.9898727e-08
2.6569339e-08
3.4122169e-08
4.2278249e-08
4.8789769e-08
6.426797e-08
5.7308676e-08
6.5376391e-08
9.2769731e-08
8.19537e-08
-6.278926e-08
-1.4227525e-09
4.4548535e-10
1.2577612e-10
1.0782453e-10
1.0305947e-09
2.9557558e-09
5.5467933e-09
9.094243e-09
1.3834811e-08
1.9797223e-08
2.669802e-08
3.4873315e-08
4.3185135e-08
5.1726177e-08
6.2176628e-08
6.3993279e-08
7.8054406e-08
1.0009556e-07
9.479324e-08
-6.731964e-08
-1.4613147e-09
3.5003329e-10
5.3307987e-11
3.3861993e-11
9.3286915e-10
2.9026139e-09
5.4420971e-09
9.0762409e-09
1.3958309e-08
1.9886516e-08
2.7364221e-08
3.5494537e-08
4.4890363e-08
5.4547792e-08
6.5788811e-08
7.6767319e-08
8.4057688e-08
1.0009959e-07
1.0856673e-07
-7.2041235e-08
-1.4084564e-09
3.7682614e-10
1.081434e-10
1.2946228e-10
1.106731e-09
3.2340981e-09
5.901394e-09
9.8041388e-09
1.4916855e-08
2.1201002e-08
2.9079719e-08
3.7866763e-08
4.8159678e-08
5.9075272e-08
7.214321e-08
8.3716915e-08
9.3018444e-08
1.1584924e-07
1.2591365e-07
-7.6072511e-08
-1.5800396e-09
3.9678629e-10
3.0361011e-10
3.7937089e-10
1.6161434e-09
4.0689683e-09
6.9812701e-09
1.1561982e-08
1.672946e-08
2.4078769e-08
3.2274248e-08
4.2232195e-08
5.3689492e-08
6.6456862e-08
8.1023658e-08
9.588237e-08
1.0844555e-07
1.3607182e-07
1.4992651e-07
-7.795964e-08
-1.0591768e-09
8.7547554e-11
-4.6497904e-10
-4.1810534e-10
-2.9012236e-10
-3.8200426e-10
-2.3440562e-10
-4.424432e-10
-2.7030695e-10
-9.8340743e-10
3.9014336e-10
-9.7285148e-10
4.4807219e-10
-6.6877232e-11
-3.0504582e-10
-1.6699843e-10
-9.8990522e-11
7.1993094e-11
-1.4495214e-10
4.7798307e-11
7.4956767e-11
-6.4916476e-10
7.357033e-10
-6.1776995e-10
4.1547824e-10
2.1928033e-11
1.1870572e-11
-7.5330857e-11
-4.5170253e-11
-6.0896969e-11
2.0056102e-11
-5.8386519e-10
6.0606546e-10
-2.0556145e-10
2.1326549e-10
2.0829368e-12
1.4515246e-12
-1.2641497e-12
-6.7308556e-13
1.2962208e-10
-4.4429115e-11
7.9620719e-11
9.4197774e-12
-3.3784213e-10
4.4748031e-10
-3.5125026e-10
2.2396283e-10
4.2345043e-11
-1.0809464e-11
-1.1196686e-12
-3.3871317e-11
5.4024585e-11
-1.2637809e-12
6.0935066e-11
5.0265921e-11
2.8515772e-11
6.9706561e-11
-2.4364947e-10
3.2383741e-10
-6.7113531e-11
1.6180931e-10
-1.719843e-10
3.2266832e-10
-1.8893528e-10
3.1667796e-10
-1.4746461e-10
1.9581414e-10
-9.3354272e-11
1.4680663e-10
4.7632538e-11
-5.34129e-11
-5.9351312e-12
-1.950565e-11
1.835551e-11
7.0297402e-12
4.4838833e-11