/*--------------------------------*- C++ -*----------------------------------*\
| =========                 |                                                 |
| \\      /  F ield         | OpenFOAM: The Open Source CFD Toolbox           |
|  \\    /   O peration     | Version:  2406                                  |
|   \\  /    A nd           | Website:  www.openfoam.com                      |
|    \\/     M anipulation  |                                                 |
\*---------------------------------------------------------------------------*/
FoamFile
{
    version     2.0;
    format      ascii;
    arch        "LSB;label=32;scalar=64";
    class       volScalarField;
    location    "100";
    object      initialResidual:Uy;
}
// * * * * * * * * * * * * * * * * * * * * * * * * * * * * * * * * * * * * * //

dimensions      [0 0 0 0 0 0 0];

internalField   nonuniform List<scalar> 
69120
(
-6.7598604e-10
-5.3269416e-10
-1.0426632e-09
-1.0760615e-09
-1.9916334e-09
-1.8323449e-09
-2.1448204e-09
-2.222416e-09
-1.8954224e-09
-2.5228462e-09
-3.1305438e-09
-1.4735261e-09
-2.8496051e-09
-3.68568e-09
-2.0602376e-08
-3.5335738e-09
-1.2769196e-08
-2.1361265e-09
-4.8377401e-08
2.0384952e-08
-2.2933792e-09
-2.2219449e-09
-3.085493e-09
-2.3798807e-09
-3.9937867e-09
-3.4925177e-09
-4.036018e-09
-4.1363253e-09
-3.8048266e-09
-6.4920219e-09
-7.9372993e-09
-8.8130168e-09
-1.4109082e-08
-1.6907147e-08
-5.1936913e-08
-1.801862e-08
-2.5084166e-08
-2.2290269e-08
-8.8832739e-08
3.5205361e-08
-4.14236e-09
-4.037329e-09
-5.3289509e-09
-3.8139935e-09
-6.1214623e-09
-5.311973e-09
-6.1038339e-09
-6.2293956e-09
-5.5850452e-09
-8.9752805e-09
-1.1134573e-08
-1.0460928e-08
-1.7299803e-08
-2.1148318e-08
-7.284242e-08
-1.2075269e-08
-3.3382795e-08
-2.52552e-08
-1.307616e-07
4.2823973e-08
-7.1161257e-09
-6.6391166e-09
-8.2368835e-09
-5.5101795e-09
-8.2818757e-09
-7.1608415e-09
-8.175031e-09
-8.3118139e-09
-7.4531692e-09
-1.1958209e-08
-1.4892293e-08
-1.4122241e-08
-2.3295581e-08
-2.857481e-08
-9.4789997e-08
-2.5319259e-08
-4.9062536e-08
-3.4881006e-08
-1.7012833e-07
5.4826266e-08
-1.0588683e-08
-9.5350394e-09
-1.1308572e-08
-7.0720546e-09
-9.9257774e-09
-8.5219522e-09
-9.6421218e-09
-9.7448658e-09
-8.7545227e-09
-1.4127579e-08
-1.7725161e-08
-1.7024836e-08
-2.8014238e-08
-3.4584428e-08
-1.1126572e-07
-3.2388127e-08
-5.9798195e-08
-4.2931709e-08
-1.9435697e-07
5.6616597e-08
-1.4511913e-08
-1.2874635e-08
-1.4714408e-08
-8.6432871e-09
-1.1323403e-08
-9.574057e-09
-1.0708669e-08
-1.0726547e-08
-9.6754652e-09
-1.569906e-08
-1.9874129e-08
-1.9396926e-08
-3.1800512e-08
-3.9556948e-08
-1.2330694e-07
-3.9228015e-08
-6.8935844e-08
-5.0115812e-08
-2.0891712e-07
5.3592051e-08
-1.8301298e-08
-1.6787827e-08
-1.8612014e-08
-1.0323832e-08
-1.26606e-08
-1.0451255e-08
-1.1476263e-08
-1.1353149e-08
-1.0267362e-08
-1.6767483e-08
-2.1447082e-08
-2.1307283e-08
-3.48062e-08
-4.3677193e-08
-1.3190121e-07
-4.58939e-08
-7.6721448e-08
-5.6579025e-08
-2.1623504e-07
4.6666285e-08
-2.3378929e-08
-2.1365157e-08
-2.3124628e-08
-1.2207789e-08
-1.4085716e-08
-1.1211954e-08
-1.2026178e-08
-1.1688069e-08
-1.0570309e-08
-1.74016e-08
-2.252316e-08
-2.2799047e-08
-3.7152235e-08
-4.7078097e-08
-1.3776372e-07
-5.2400918e-08
-8.3406826e-08
-6.2462041e-08
-2.1860775e-07
3.7264012e-08
-2.9958151e-08
-2.6691287e-08
-2.8373557e-08
-1.4387832e-08
-1.5694712e-08
-1.193758e-08
-1.241333e-08
-1.1774734e-08
-1.0578822e-08
-1.7626564e-08
-2.3127117e-08
-2.3846242e-08
-3.8877289e-08
-4.9820963e-08
-1.4150505e-07
-5.8565231e-08
-8.9117524e-08
-6.7738101e-08
-2.1712628e-07
2.60349e-08
-3.653855e-08
-3.2850008e-08
-3.4488385e-08
-1.696438e-08
-1.7624452e-08
-1.2688684e-08
-1.2700269e-08
-1.1647838e-08
-1.0319634e-08
-1.7469872e-08
-2.3289478e-08
-2.4466912e-08
-4.0035448e-08
-5.1954233e-08
-1.4359698e-07
-6.4346761e-08
-9.3994489e-08
-7.2505989e-08
-2.1332625e-07
1.4048698e-08
-4.3856416e-08
-3.9919883e-08
-4.1594813e-08
-2.0037692e-08
-1.9956033e-08
-1.3548812e-08
-1.291933e-08
-1.1321323e-08
-9.7826748e-09
-1.6908262e-08
-2.2971792e-08
-2.4604613e-08
-4.0574879e-08
-5.3436437e-08
-1.4432773e-07
-6.9498401e-08
-9.7992683e-08
-7.6684521e-08
-2.0745681e-07
1.5575737e-09
-5.1978695e-08
-4.7987093e-08
-4.983978e-08
-2.3744148e-08
-2.2842814e-08
-1.4599754e-08
-1.3160767e-08
-1.0851929e-08
-8.9942926e-09
-1.5975409e-08
-2.2209676e-08
-2.4265038e-08
-4.0544859e-08
-5.4309563e-08
-1.4396869e-07
-7.4004345e-08
-1.0123413e-07
-8.0328271e-08
-2.0055059e-07
-1.0680348e-08
-6.091275e-08
-5.7126272e-08
-5.9359049e-08
-2.8218032e-08
-2.6378732e-08
-1.5940622e-08
-1.3479788e-08
-1.0270938e-08
-7.9532372e-09
-1.4647698e-08
-2.0955512e-08
-2.3370938e-08
-3.9869239e-08
-5.450688e-08
-1.4257206e-07
-7.7618065e-08
-1.0361795e-07
-8.3306072e-08
-1.9236558e-07
-2.2623271e-08
-7.0662578e-08
-6.743339e-08
-7.0328269e-08
-3.3631547e-08
-3.0761782e-08
-1.7708201e-08
-1.3997826e-08
-9.6587907e-09
-6.7153747e-09
-1.2967511e-08
-1.9245707e-08
-2.1947174e-08
-3.8587062e-08
-5.4051938e-08
-1.4033071e-07
-8.0418371e-08
-1.0523504e-07
-8.5693104e-08
-1.8370279e-07
-3.3815495e-08
-8.1191609e-08
-7.8982445e-08
-8.2900156e-08
-4.0150763e-08
-3.6128169e-08
-2.0045643e-08
-1.4796953e-08
-9.0645775e-09
-5.3099571e-09
-1.0912992e-08
-1.7021592e-08
-1.9918368e-08
-3.6594566e-08
-5.2838111e-08
-1.3719871e-07
-8.2205775e-08
-1.0592553e-07
-8.7349419e-08
-1.7416305e-07
-4.4334521e-08
-9.2488416e-08
-9.1859803e-08
-9.725937e-08
-4.7994784e-08
-4.2718211e-08
-2.3139003e-08
-1.605691e-08
-8.6220859e-09
-3.8183104e-09
-8.5621436e-09
-1.4351299e-08
-1.7316702e-08
-3.394989e-08
-5.0907026e-08
-1.3329791e-07
-8.3079272e-08
-1.0580543e-07
-8.8318644e-08
-1.6434505e-07
-5.385211e-08
-1.044992e-07
-1.061178e-07
-1.1355315e-07
-5.73696e-08
-5.0707441e-08
-2.7169658e-08
-1.7914806e-08
-8.4284517e-09
-2.3008481e-09
-5.9252666e-09
-1.119854e-08
-1.4063126e-08
-3.055599e-08
-4.8149453e-08
-1.2849778e-07
-8.281641e-08
-1.0471057e-07
-8.8413827e-08
-1.5374091e-07
-6.2405252e-08
-1.171885e-07
-1.218247e-07
-1.3196557e-07
-6.8527544e-08
-6.0386913e-08
-3.2393e-08
-2.0607417e-08
-8.6693863e-09
-8.955305e-10
-3.1142055e-09
-7.6547159e-09
-1.0225957e-08
-2.6473842e-08
-4.459926e-08
-1.2291201e-07
-8.1544013e-08
-1.0273121e-07
-8.769796e-08
-1.4286986e-07
-6.9786578e-08
-1.3046594e-07
-1.3900133e-07
-1.5262644e-07
-8.1697488e-08
-7.1980318e-08
-3.9048982e-08
-2.4323831e-08
-9.4905353e-09
2.764097e-10
-1.7351646e-10
-3.7028938e-09
-5.7546721e-09
-2.1600813e-08
-4.0125944e-08
-1.1639537e-07
-7.9043247e-08
-9.9652623e-08
-8.5981884e-08
-1.3123563e-07
-7.6011717e-08
-1.4426256e-07
-1.5767158e-07
-1.7568628e-07
-9.7160704e-08
-8.581563e-08
-4.7453424e-08
-2.9380075e-08
-1.1159691e-08
1.0173562e-09
2.7208084e-09
5.0840097e-10
-7.5079653e-10
-1.6029659e-08
-3.4792982e-08
-1.0903523e-07
-7.5418861e-08
-9.5571313e-08
-8.3294473e-08
-1.1923432e-07
-8.0899831e-08
-1.5844877e-07
-1.7779729e-07
-2.0122376e-07
-1.1515956e-07
-1.0214617e-07
-5.7895369e-08
-3.6037099e-08
-1.3899772e-08
1.1409298e-09
5.4564858e-09
4.9382104e-09
4.8069968e-09
-9.6882163e-09
-2.8490789e-08
-1.0065866e-07
-7.0432848e-08
-9.0265693e-08
-7.940298e-08
-1.0632627e-07
-8.4382555e-08
-1.7291303e-07
-1.9934408e-07
-2.2933419e-07
-1.3597325e-07
-1.2132799e-07
-7.0760637e-08
-4.4681178e-08
-1.8058927e-08
3.5756537e-10
7.7854569e-09
9.3767009e-09
1.0750858e-08
-2.699889e-09
-2.13034e-08
-9.1373627e-08
-6.4219967e-08
-8.3806709e-08
-7.4348769e-08
-9.2862839e-08
-8.6348941e-08
-1.8747988e-07
-2.222003e-07
-2.6002077e-07
-1.5982372e-07
-1.4362933e-07
-8.6393299e-08
-5.5641176e-08
-2.3937608e-08
-1.6134738e-09
9.514347e-09
1.3715133e-08
1.7033887e-08
4.9654222e-09
-1.3138429e-08
-8.1034814e-08
-5.6578141e-08
-7.5948769e-08
-6.7905848e-08
-7.8327156e-08
-8.6710145e-08
-2.020012e-07
-2.4624641e-07
-2.9328156e-07
-1.8696292e-07
-1.6939882e-07
-1.0522398e-07
-6.9386196e-08
-3.198639e-08
-5.1558859e-09
1.0286358e-08
1.763959e-08
2.3410096e-08
1.3105607e-08
-4.1497911e-09
-6.9764939e-08
-4.7646216e-08
-6.6791727e-08
-6.0098636e-08
-6.2980764e-08
-8.5353791e-08
-2.1626941e-07
-2.7127519e-07
-3.2899899e-07
-2.1756094e-07
-1.9888081e-07
-1.2761723e-07
-8.6319768e-08
-4.2602188e-08
-1.0648038e-08
9.7908171e-09
2.092927e-08
2.9745229e-08
2.1655825e-08
5.6830722e-09
-5.7449351e-08
-3.7236524e-08
-5.6127263e-08
-5.0682249e-08
-4.6297024e-08
-8.2126915e-08
-2.3010739e-07
-2.9707634e-07
-3.6704464e-07
-2.5178924e-07
-2.3238377e-07
-1.5402731e-07
-1.0696892e-07
-5.6325081e-08
-1.8592569e-08
7.5555012e-09
2.3157135e-08
3.5671272e-08
3.0319956e-08
1.6129148e-08
-4.4289137e-08
-2.5547723e-08
-4.4071388e-08
-3.9720629e-08
-2.8550222e-08
-7.6963992e-08
-2.4328278e-07
-3.2334626e-07
-4.0715302e-07
-2.897037e-07
-2.7008789e-07
-1.8480976e-07
-1.3176448e-07
-7.3619756e-08
-2.9482419e-08
3.1540589e-09
2.3982745e-08
4.0919242e-08
3.8930085e-08
2.7125199e-08
-3.0267601e-08
-1.2467168e-08
-3.0440778e-08
-2.70152e-08
-9.2878042e-09
-6.9716996e-08
-2.5561247e-07
-3.4977768e-07
-4.4903273e-07
-3.3134337e-07
-3.1220033e-07
-2.2038236e-07
-1.6125752e-07
-9.5100807e-08
-4.3922196e-08
-4.0190427e-09
2.2830694e-08
4.4984162e-08
4.7050173e-08
3.8302708e-08
-1.5675326e-08
1.751458e-09
-1.5426221e-08
-1.266068e-08
1.1236043e-08
-6.0332391e-08
-2.6687131e-07
-3.7597123e-07
-4.9224717e-07
-3.7659656e-07
-3.5876476e-07
-2.6102867e-07
-1.9586474e-07
-1.2127841e-07
-6.2487666e-08
-1.4514629e-08
1.9212531e-08
4.7453692e-08
5.4365307e-08
4.9455525e-08
-6.0326264e-10
1.7129829e-08
1.0663048e-09
3.5021085e-09
3.3443032e-08
-4.8647124e-08
-2.769001e-07
-4.0154675e-07
-5.3634254e-07
-4.2530308e-07
-4.0982473e-07
-3.0707548e-07
-2.3608902e-07
-1.5278762e-07
-8.586843e-08
-2.9048146e-08
1.2414241e-08
4.7657624e-08
6.0290993e-08
6.0064784e-08
1.4502715e-08
3.3269473e-08
1.8764004e-08
2.1274832e-08
5.700267e-08
-3.469089e-08
-2.8551812e-07
-4.2604679e-07
-5.8072532e-07
-4.7712484e-07
-4.6522337e-07
-3.5867202e-07
-2.8226348e-07
-1.9012135e-07
-1.1469178e-07
-4.8272818e-08
1.8116923e-09
4.5017581e-08
6.433718e-08
6.9761375e-08
2.9379944e-08
5.0015798e-08
3.7640816e-08
4.0704741e-08
8.2221019e-08
-1.8375032e-08
-2.926406e-07
-4.4906522e-07
-6.2479753e-07
-5.3166409e-07
-5.2476605e-07
-4.1596452e-07
-3.3478351e-07
-2.3387865e-07
-1.4966467e-07
-7.2998675e-08
-1.3450794e-08
3.8706903e-08
6.5720467e-08
7.7819797e-08
4.3414133e-08
6.6811742e-08
5.7247129e-08
6.1479753e-08
1.0870695e-07
1.8890221e-10
-2.9818769e-07
-4.7016519e-07
-6.678486e-07
-5.8832886e-07
-5.8803962e-07
-4.7886961e-07
-3.9382039e-07
-2.8446136e-07
-1.9139217e-07
-1.0394865e-07
-3.4122046e-08
2.7991142e-08
6.3736898e-08
8.365576e-08
5.6145085e-08
8.3327524e-08
7.7347116e-08
8.3497444e-08
1.3664326e-07
2.1012548e-08
-3.0219606e-07
-4.8901551e-07
-7.0922709e-07
-6.4645946e-07
-6.545728e-07
-5.4727037e-07
-4.5954557e-07
-3.4231985e-07
-2.4052995e-07
-1.4195338e-07
-6.1143477e-08
1.1893296e-08
5.7412764e-08
8.6334973e-08
6.6719793e-08
9.8780706e-08
9.7293903e-08
1.0622508e-07
1.6544462e-07
4.38114e-08
-3.0472682e-07
-5.0520884e-07
-7.4822622e-07
-7.0521157e-07
-7.2366792e-07
-6.2078725e-07
-5.3186035e-07
-4.0765266e-07
-2.9757548e-07
-1.8769587e-07
-9.5305077e-08
-1.0454527e-08
4.5886712e-08
8.5082433e-08
7.4423899e-08
1.1260605e-07
1.166404e-07
1.293106e-07
1.9505273e-07
6.8428299e-08
-3.0598102e-07
-5.184573e-07
-7.8421308e-07
-7.6371198e-07
-7.9457131e-07
-6.9896516e-07
-6.1062894e-07
-4.8066804e-07
-3.6300935e-07
-2.4192222e-07
-1.3755606e-07
-4.0112079e-08
2.8034556e-08
7.8759674e-08
7.8171369e-08
1.2380142e-07
1.3448292e-07
1.5197818e-07
2.2468812e-07
9.4392903e-08
-3.0619282e-07
-5.2858987e-07
-8.1651663e-07
-8.2096152e-07
-8.6632409e-07
-7.8107106e-07
-6.9542627e-07
-5.6126691e-07
-4.3707558e-07
-3.0515902e-07
-1.8863594e-07
-7.797928e-08
2.8866344e-09
6.6412839e-08
7.7036401e-08
1.3156298e-07
1.501105e-07
1.7364031e-07
2.5406885e-07
1.2133023e-07
-3.0573236e-07
-5.3640159e-07
-8.4459917e-07
-8.7602289e-07
-9.3798316e-07
-8.6632667e-07
-7.8571881e-07
-6.4928214e-07
-5.1995427e-07
-3.7792067e-07
-2.4937138e-07
-1.2509863e-07
-3.0739384e-08
4.6757036e-08
6.9711703e-08
1.3462073e-07
1.6237309e-07
1.9322535e-07
2.8212145e-07
1.4845952e-07
-3.0500269e-07
-5.435447e-07
-8.6850591e-07
-9.2788528e-07
-1.0085187e-06
-9.5370614e-07
-8.8067229e-07
-7.4423908e-07
-6.1150825e-07
-4.6043703e-07
-3.2030089e-07
-1.8228451e-07
-7.3833679e-08
1.8745193e-08
5.5088065e-08
1.3190804e-07
1.7029842e-07
2.0986691e-07
3.082551e-07
1.7507395e-07
-3.0453717e-07
-5.5004636e-07
-8.9020686e-07
-9.7511138e-07
-1.0770275e-06
-1.0422025e-06
-9.7940271e-07
-8.4553782e-07
-7.1154369e-07
-5.5287923e-07
-4.0198685e-07
-2.50409e-07
-1.2755764e-07
-1.897201e-08
3.1726342e-08
1.2194671e-07
1.7246093e-07
2.222239e-07
3.3112913e-07
2.0006265e-07
-3.0479688e-07
-5.366041e-07
-9.0998419e-07
-1.0182777e-06
-1.1425977e-06
-1.1306608e-06
-1.0807754e-06
-9.5228057e-07
-8.1945326e-07
-6.5504405e-07
-4.9462194e-07
-3.3004815e-07
-1.9280027e-07
-6.7430959e-08
-1.5763777e-09
1.035164e-07
1.6762594e-07
2.2914869e-07
3.4987244e-07
2.2242742e-07
-3.063166e-07
-5.4799472e-07
-9.1549145e-07
-1.056726e-06
-1.2046036e-06
-1.2180851e-06
-1.1837038e-06
-1.0635238e-06
-9.3456701e-07
-7.6670005e-07
-5.9831969e-07
-4.2176475e-07
-2.705113e-07
-1.2788681e-07
-4.6316556e-08
7.5000435e-08
1.5417661e-07
2.2899688e-07
3.6282389e-07
2.4069848e-07
-3.0944916e-07
-5.6676177e-07
-9.2898394e-07
-1.0912662e-06
-1.2625359e-06
-1.3034961e-06
-1.2870678e-06
-1.1781033e-06
-1.0559068e-06
-8.8711564e-07
-7.1291705e-07
-5.2572986e-07
-3.6131373e-07
-2.0121613e-07
-1.036845e-07
3.5108855e-08
1.3075515e-07
2.2033929e-07
3.6880287e-07
2.5357365e-07
-3.1466043e-07
-5.7332629e-07
-9.4146507e-07
-1.1232118e-06
-1.3164851e-06
-1.386212e-06
-1.3900697e-06
-1.2950187e-06
-1.1824552e-06
-1.0155772e-06
-8.3797712e-07
-6.4219407e-07
-4.6580075e-07
-2.8846899e-07
-1.7505199e-07
-1.7758275e-08
9.5658912e-08
2.0133136e-07
3.6592482e-07
2.5930817e-07
-3.21725e-07
-5.8734832e-07
-9.581324e-07
-1.1555528e-06
-1.3666942e-06
-1.4661678e-06
-1.4920878e-06
-1.4134294e-06
-1.313055e-06
-1.1511063e-06
-9.7280663e-07
-7.7074863e-07
-5.8441313e-07
-3.9020873e-07
-2.6134713e-07
-8.4832247e-08
4.7529267e-08
1.7044288e-07
3.5283182e-07
2.5634236e-07
-3.3014637e-07
-6.0735546e-07
-9.7845394e-07
-1.1951577e-06
-1.4159512e-06
-1.5427528e-06
-1.5928414e-06
-1.5329816e-06
-1.4467659e-06
-1.2927609e-06
-1.1166939e-06
-9.1106156e-07
-7.1715985e-07
-5.0735451e-07
-3.6390843e-07
-1.6758348e-07
-1.5240238e-08
1.2576035e-07
3.2747567e-07
2.4266752e-07
-3.4436493e-07
-6.3169016e-07
-9.8151943e-07
-1.2459028e-06
-1.4694952e-06
-1.6165145e-06
-1.6932195e-06
-1.653688e-06
-1.5829189e-06
-1.4395608e-06
-1.2687208e-06
-1.0625005e-06
-8.6390241e-07
-6.3998519e-07
-4.8327254e-07
-2.6744084e-07
-9.3840398e-08
6.5772518e-08
2.8838468e-07
2.1653549e-07
-4.0536761e-07
-6.5704276e-07
-1.0489377e-06
-1.253704e-06
-1.5277608e-06
-1.6930449e-06
-1.7922509e-06
-1.7760528e-06
-1.7213702e-06
-1.5908487e-06
-1.4281836e-06
-1.2244845e-06
-1.0244866e-06
-7.8860743e-07
-6.2024548e-07
-3.85581e-07
-1.9011619e-07
-1.1248295e-08
2.335975e-07
1.7591149e-07
-2.6296949e-07
-8.9992773e-07
-1.0283283e-06
-1.3452987e-06
-1.6040065e-06
-1.7735876e-06
-1.8925824e-06
-1.9006736e-06
-1.8624073e-06
-1.7464022e-06
-1.594448e-06
-1.3963926e-06
-1.1985639e-06
-9.5340857e-07
-7.7528324e-07
-5.23156e-07
-3.0502564e-07
-1.0711037e-07
1.6133719e-07
1.1921162e-07
-2.9902534e-07
-7.2631095e-07
-1.4679176e-06
-1.2868855e-06
-1.6560794e-06
-1.8647697e-06
-1.9972699e-06
-2.0304408e-06
-2.0068382e-06
-1.9068363e-06
-1.7673737e-06
-1.5778868e-06
-1.3859016e-06
-1.1348281e-06
-9.4906554e-07
-6.8163884e-07
-4.4016915e-07
-2.2329986e-07
6.9708467e-08
4.4052731e-08
-2.7042181e-07
-9.6825266e-07
-1.1649615e-06
-1.6127586e-06
-1.7681495e-06
-1.9628153e-06
-2.1095925e-06
-2.1595865e-06
-2.1584065e-06
-2.0729402e-06
-1.9473399e-06
-1.7688046e-06
-1.586292e-06
-1.333246e-06
-1.1421776e-06
-8.6240455e-07
-5.970877e-07
-3.6147552e-07
-4.2964351e-08
-5.0860306e-08
-2.6732524e-07
-1.0467503e-06
-1.3874935e-06
-1.6400139e-06
-1.8509378e-06
-2.082628e-06
-2.2374861e-06
-2.2990705e-06
-2.3128971e-06
-2.2455905e-06
-2.1348539e-06
-1.9693527e-06
-1.7996465e-06
-1.5493989e-06
-1.3555408e-06
-1.0672411e-06
-7.7795367e-07
-5.237333e-07
-1.7903728e-07
-1.6751262e-07
-2.721735e-07
-1.1068861e-06
-1.5169927e-06
-1.7709552e-06
-1.9829271e-06
-2.2155182e-06
-2.376496e-06
-2.4489197e-06
-2.4704494e-06
-2.4285722e-06
-2.3297801e-06
-2.1797403e-06
-2.025633e-06
-1.7837635e-06
-1.5900475e-06
-1.2979353e-06
-9.8526338e-07
-7.1237081e-07
-3.407648e-07
-3.0777444e-07
-2.8147119e-07
-1.1612631e-06
-1.622926e-06
-1.928298e-06
-2.1294251e-06
-2.3478088e-06
-2.5229341e-06
-2.6089686e-06
-2.6409196e-06
-2.6075437e-06
-2.5368015e-06
-2.3989571e-06
-2.2636613e-06
-2.0360239e-06
-1.8463537e-06
-1.556382e-06
-1.2221211e-06
-9.305831e-07
-5.3147976e-07
-4.7432657e-07
-2.6019736e-07
-1.2419909e-06
-1.7089603e-06
-2.0587781e-06
-2.3305007e-06
-2.502217e-06
-2.6621175e-06
-2.7717366e-06
-2.8147654e-06
-2.7955861e-06
-2.7364e-06
-2.6265362e-06
-2.5156161e-06
-2.3042912e-06
-2.1239378e-06
-1.8432703e-06
-1.4914177e-06
-1.1819038e-06
-7.548205e-07
-6.7042428e-07
-1.858299e-07
-1.3152435e-06
-2.0106162e-06
-1.9947787e-06
-2.2665062e-06
-2.7758741e-06
-2.824376e-06
-2.9612046e-06
-2.9932343e-06
-2.9814605e-06
-2.9406888e-06
-2.8509453e-06
-2.7623964e-06
-2.5866036e-06
-2.4227533e-06
-2.1571662e-06
-1.7945964e-06
-1.4697473e-06
-1.0150284e-06
-9.0037119e-07
-1.8614609e-07
-1.3951685e-06
-1.9937419e-06
-2.1538271e-06
-2.5317902e-06
-2.9430139e-06
-2.7819524e-06
-3.0885093e-06
-3.1787876e-06
-3.1665838e-06
-3.1377885e-06
-3.0676292e-06
-3.0075183e-06
-2.8665087e-06
-2.7275717e-06
-2.4952959e-06
-2.1293355e-06
-1.7948913e-06
-1.3149932e-06
-1.1687784e-06
-1.3975782e-07
-1.4140721e-06
-1.9926502e-06
-2.4190884e-06
-2.5945006e-06
-3.0230924e-06
-2.977848e-06
-3.1523e-06
-3.3222338e-06
-3.3334993e-06
-3.3162605e-06
-3.2670979e-06
-3.2354747e-06
-3.133081e-06
-3.0274897e-06
-2.8343476e-06
-2.492792e-06
-2.1528668e-06
-1.6550926e-06
-1.4783025e-06
-7.8387846e-08
-1.4844417e-06
-2.1025296e-06
-2.4905858e-06
-2.701734e-06
-2.9893908e-06
-3.2331286e-06
-3.3283991e-06
-3.3913274e-06
-3.4609545e-06
-3.456673e-06
-3.4339692e-06
-3.4321094e-06
-3.3705609e-06
-3.3055838e-06
-3.1618412e-06
-2.8511638e-06
-2.5304567e-06
-2.0378311e-06
-1.8219795e-06
2.562136e-09
-1.6067052e-06
-2.1519141e-06
-2.5687937e-06
-2.8239531e-06
-3.1293318e-06
-3.3332823e-06
-3.4209494e-06
-3.499459e-06
-3.6088144e-06
-3.5806733e-06
-3.5620938e-06
-3.5849432e-06
-3.5606716e-06
-3.5411762e-06
-3.455059e-06
-3.1863997e-06
-2.8989302e-06
-2.424262e-06
-2.2042676e-06
5.2706847e-08
-1.6804157e-06
-2.2163323e-06
-2.6879859e-06
-2.9663678e-06
-3.2602768e-06
-3.4542766e-06
-3.5527423e-06
-3.662866e-06
-3.6415595e-06
-3.6960081e-06
-3.6734808e-06
-3.7115786e-06
-3.7033913e-06
-3.7069413e-06
-3.6912063e-06
-3.4754461e-06
-3.2284262e-06
-2.7925661e-06
-2.5835331e-06
1.1014736e-07
-1.7540942e-06
-2.2977372e-06
-2.8167457e-06
-3.108787e-06
-3.4129824e-06
-3.6015994e-06
-3.6995656e-06
-3.7770576e-06
-3.7781019e-06
-3.8217479e-06
-3.6985797e-06
-3.7946865e-06
-3.9043608e-06
-3.8448198e-06
-3.8521841e-06
-3.693494e-06
-3.4936366e-06
-3.110247e-06
-2.9265583e-06
1.6697755e-07
-1.8266554e-06
-2.3865918e-06
-2.944813e-06
-3.2623005e-06
-3.5876836e-06
-3.7703216e-06
-3.8746634e-06
-3.9243028e-06
-3.9271165e-06
-3.9277215e-06
-3.8461817e-06
-3.966817e-06
-3.7898852e-06
-4.0317363e-06
-4.0247386e-06
-3.8469009e-06
-3.6584305e-06
-3.3660206e-06
-3.2106681e-06
2.2178551e-07
-1.8925717e-06
-2.4811577e-06
-3.074732e-06
-3.4313212e-06
-3.7747078e-06
-3.9606378e-06
-4.0740567e-06
-4.1042754e-06
-4.0973956e-06
-4.0785249e-06
-3.990695e-06
-4.0446875e-06
-3.9707358e-06
-4.1525155e-06
-3.8523985e-06
-4.4007821e-06
-3.6038131e-06
-3.4724755e-06
-3.4325024e-06
2.7432675e-07
-1.9513774e-06
-2.5810391e-06
-3.2061676e-06
-3.6128657e-06
-3.9712387e-06
-4.1751471e-06
-4.2938293e-06
-4.3121117e-06
-4.2987271e-06
-4.2611088e-06
-4.1461481e-06
-4.189084e-06
-4.1041129e-06
-4.2402299e-06
-4.0713762e-06
-4.3139437e-06
-4.0867539e-06
-3.3831368e-06
-3.5492102e-06
3.2300804e-07
-2.0004508e-06
-2.6862014e-06
-3.3346335e-06
-3.8072099e-06
-4.1736817e-06
-4.4148829e-06
-4.5314959e-06
-4.5491929e-06
-4.5299987e-06
-4.4687758e-06
-4.3456199e-06
-4.3574739e-06
-4.2629976e-06
-4.3579184e-06
-4.2796849e-06
-4.3391069e-06
-3.788012e-06
-3.8781756e-06
-3.6812203e-06
3.6731459e-07
-2.0404417e-06
-2.791962e-06
-3.4631813e-06
-4.0077104e-06
-4.3853059e-06
-4.6749265e-06
-4.787214e-06
-4.8160019e-06
-4.7895492e-06
-4.7042948e-06
-4.5863542e-06
-4.5450114e-06
-4.4692224e-06
-4.5090981e-06
-4.4597035e-06
-4.4123502e-06
-4.0657328e-06
-4.0662367e-06
-3.5244958e-06
4.0775587e-07
-2.073468e-06
-2.8913899e-06
-3.5967598e-06
-4.2039648e-06
-4.6120994e-06
-4.9461168e-06
-5.063811e-06
-5.1104148e-06
-5.0745688e-06
-4.9736673e-06
-4.8562993e-06
-4.7704208e-06
-4.7035073e-06
-4.7057875e-06
-4.6361935e-06
-4.5952015e-06
-4.2735159e-06
-4.194946e-06
-3.6416776e-06
4.4391651e-07
-2.0986062e-06
-2.9849336e-06
-3.7285674e-06
-4.3994322e-06
-4.8456131e-06
-5.2304659e-06
-5.3577569e-06
-5.4321944e-06
-5.3861826e-06
-5.2741776e-06
-5.1623061e-06
-5.0232264e-06
-4.9834749e-06
-4.9151138e-06
-4.8797078e-06
-4.7844e-06
-4.4988733e-06
-4.3032483e-06
-3.849599e-06
4.7719557e-07
-2.1161443e-06
-3.0726159e-06
-3.8519656e-06
-4.5967944e-06
-5.0767417e-06
-5.5284863e-06
-5.6660937e-06
-5.7788654e-06
-5.7230569e-06
-5.6102228e-06
-5.4943235e-06
-5.3192605e-06
-5.2881875e-06
-5.1658633e-06
-5.1544488e-06
-5.0003455e-06
-4.7459252e-06
-4.4859254e-06
-4.0243912e-06
5.0390439e-07
-2.1357302e-06
-3.1511789e-06
-3.9683368e-06
-4.7847211e-06
-5.3089944e-06
-5.8254068e-06
-5.9945816e-06
-6.1396845e-06
-6.0876038e-06
-5.9834617e-06
-5.8442965e-06
-5.6730964e-06
-5.6002707e-06
-5.4799393e-06
-5.4354486e-06
-5.2679631e-06
-5.011881e-06
-4.7074921e-06
-4.2499663e-06
4.5300599e-07
-2.0751065e-06
-3.2152947e-06
-4.0798262e-06
-4.9555571e-06
-5.5482973e-06
-6.1112017e-06
-6.3467206e-06
-6.5085853e-06
-6.483343e-06
-6.3849927e-06
-6.2255332e-06
-6.0634834e-06
-5.9479998e-06
-5.8224241e-06
-5.7610491e-06
-5.550999e-06
-5.3297166e-06
-4.9395132e-06
-4.5185045e-06
4.668492e-07
-2.0822214e-06
-3.265195e-06
-4.1848141e-06
-5.1076896e-06
-5.7871116e-06
-6.3871533e-06
-6.7102457e-06
-6.8890302e-06
-6.904601e-06
-6.8107553e-06
-6.6477961e-06
-6.4753707e-06
-6.3494043e-06
-6.1778572e-06
-6.1398325e-06
-5.8553207e-06
-5.6734223e-06
-5.2289189e-06
-4.763481e-06
4.7795736e-07
-2.0736394e-06
-3.297298e-06
-4.2773841e-06
-5.2475875e-06
-6.0144643e-06
-6.6630218e-06
-7.0709602e-06
-7.2869084e-06
-7.3424372e-06
-7.2629809e-06
-7.1049193e-06
-6.9163758e-06
-6.788718e-06
-6.5684486e-06
-6.5425725e-06
-6.2084535e-06
-6.0217242e-06
-5.5775204e-06
-5.0123583e-06
4.8695955e-07
-2.0619204e-06
-3.3182686e-06
-4.352016e-06
-5.3758408e-06
-6.2200003e-06
-6.9363639e-06
-7.4190578e-06
-7.6970118e-06
-7.7908412e-06
-7.740618e-06
-7.589781e-06
-7.3946696e-06
-7.2548455e-06
-7.006582e-06
-6.9611095e-06
-6.607018e-06
-6.3921623e-06
-5.9503473e-06
-5.3078595e-06
4.934768e-07
-2.0410924e-06
-3.3299683e-06
-4.4059084e-06
-5.4883258e-06
-6.4009873e-06
-7.1981959e-06
-7.7523922e-06
-8.1090367e-06
-8.2470087e-06
-8.2378685e-06
-8.1001039e-06
-7.907909e-06
-7.7478639e-06
-7.4859182e-06
-7.404809e-06
-7.0367395e-06
-6.7964866e-06
-6.3366336e-06
-5.6471371e-06
5.313345e-07
-2.0461849e-06
-3.3337387e-06
-4.4388904e-06
-5.5801831e-06
-6.5551715e-06
-7.4387648e-06
-8.0673124e-06
-8.5127767e-06
-8.7060188e-06
-8.7482769e-06
-8.6329619e-06
-8.4509654e-06
-8.2718156e-06
-8.0002316e-06
-7.8805754e-06
-7.4945788e-06
-7.2308571e-06
-6.7430767e-06
-6.0159703e-06
5.3049883e-07
-2.0094217e-06
-3.3277102e-06
-4.4508127e-06
-5.6480478e-06
-6.6787218e-06
-7.6502893e-06
-8.3570741e-06
-8.8991751e-06
-9.1602127e-06
-9.2651511e-06
-9.1836335e-06
-9.0189931e-06
-8.825209e-06
-8.5454216e-06
-8.3862749e-06
-7.9792118e-06
-7.689011e-06
-7.171941e-06
-6.4035765e-06
5.1802836e-07
-1.9577246e-06
-3.3123244e-06
-4.4440095e-06
-5.6918075e-06
-6.7703267e-06
-7.8284603e-06
-8.6149885e-06
-9.2601795e-06
-9.5998195e-06
-9.7798712e-06
-9.7429787e-06
-9.6051448e-06
-9.4050967e-06
-9.1187316e-06
-8.9201682e-06
-8.490645e-06
-8.1680499e-06
-7.62061e-06
-6.8061233e-06
5.1606057e-07
-1.9092214e-06
-3.286271e-06
-4.4181506e-06
-5.7105207e-06
-6.8279703e-06
-7.9696108e-06
-8.8341127e-06
-9.5874169e-06
-1.001439e-05
-1.0282717e-05
-1.0302433e-05
-1.0202544e-05
-1.0004006e-05
-9.7144355e-06
-9.4767778e-06
-9.023932e-06
-8.6633068e-06
-8.0856878e-06
-7.2177998e-06
5.2601411e-07
-1.8669619e-06
-3.2481774e-06
-4.3726033e-06
-5.7021672e-06
-6.8501212e-06
-8.0700875e-06
-9.0089665e-06
-9.8725893e-06
-1.0392825e-05
-1.0761387e-05
-1.0848698e-05
-1.0799722e-05
-1.0613724e-05
-1.0326232e-05
-1.0053647e-05
-9.5766614e-06
-9.1720785e-06
-8.5652329e-06
-7.6355763e-06
5.4154495e-07
-1.8219415e-06
-3.195772e-06
-4.3097725e-06
-5.6674722e-06
-6.8364739e-06
-8.1254982e-06
-9.13228e-06
-1.0105333e-05
-1.0721119e-05
-1.1201872e-05
-1.136717e-05
-1.1384039e-05
-1.1221151e-05
-1.094328e-05
-1.0640377e-05
-1.0139546e-05
-9.6890122e-06
-9.0505745e-06
-8.0544251e-06
5.6035832e-07
-1.7780208e-06
-3.1322191e-06
-4.2300804e-06
-5.6055642e-06
-6.7832608e-06
-8.1311427e-06
-9.1957543e-06
-1.0275997e-05
-1.0985725e-05
-1.1587829e-05
-1.1839456e-05
-1.1937782e-05
-1.1811121e-05
-1.1553632e-05
-1.1228911e-05
-1.0706457e-05
-1.0209583e-05
-9.534764e-06
-8.4698896e-06
5.084219e-07
-1.7122412e-06
-2.9922625e-06
-4.1327331e-06
-5.5163208e-06
-6.6940438e-06
-8.0884383e-06
-9.1975387e-06
-1.0376787e-05
-1.1174787e-05
-1.1902741e-05
-1.2247135e-05
-1.2441473e-05
-1.2363305e-05
-1.2139091e-05
-1.1800288e-05
-1.1262272e-05
-1.0719509e-05
-1.0008562e-05
-8.8708916e-06
4.4756693e-07
-1.5898611e-06
-2.8937454e-06
-4.0139175e-06
-5.3956347e-06
-6.5642775e-06
-7.9914676e-06
-9.1314838e-06
-1.039803e-05
-1.1275953e-05
-1.212892e-05
-1.2570183e-05
-1.287212e-05
-1.2855794e-05
-1.2679308e-05
-1.2337553e-05
-1.1792855e-05
-1.1206996e-05
-1.0460318e-05
-9.2513348e-06
4.3194702e-07
-1.5029771e-06
-2.7793011e-06
-3.8746452e-06
-5.2435158e-06
-6.3954064e-06
-7.8415925e-06
-8.9978336e-06
-1.0334531e-05
-1.1279653e-05
-1.224923e-05
-1.2786173e-05
-1.3202846e-05
-1.3258507e-05
-1.3144221e-05
-1.2810462e-05
-1.2270671e-05
-1.1648039e-05
-1.0869574e-05
-9.5952316e-06
4.0927556e-07
-1.428599e-06
-2.6306054e-06
-3.7125485e-06
-5.056828e-06
-6.1855288e-06
-7.6304802e-06
-8.7901768e-06
-1.0174664e-05
-1.1174017e-05
-1.2245423e-05
-1.2873273e-05
-1.340683e-05
-1.3541919e-05
-1.3504525e-05
-1.3191781e-05
-1.2670034e-05
-1.2021033e-05
-1.1216972e-05
-9.8827309e-06
3.7819525e-07
-1.3441195e-06
-2.4627124e-06
-3.5379675e-06
-4.8281478e-06
-5.9359155e-06
-7.3516467e-06
-8.5085034e-06
-9.9108431e-06
-1.0948743e-05
-1.2098146e-05
-1.2805033e-05
-1.3449035e-05
-1.3665236e-05
-1.3715172e-05
-1.3435498e-05
-1.2947371e-05
-1.2284221e-05
-1.1468341e-05
-1.0081686e-05
2.9457173e-07
-1.1851105e-06
-2.2934333e-06
-3.3466769e-06
-4.5551605e-06
-5.6357757e-06
-7.0053788e-06
-8.1414025e-06
-9.5271022e-06
-1.0590473e-05
-1.1779498e-05
-1.255348e-05
-1.3294129e-05
-1.3590467e-05
-1.3734471e-05
-1.349907e-05
-1.3061513e-05
-1.2401174e-05
-1.1585119e-05
-1.0168188e-05
2.3395402e-07
-1.0578021e-06
-2.0749715e-06
-3.1210915e-06
-4.2020804e-06
-5.3362646e-06
-6.5211732e-06
-7.73938e-06
-8.9715183e-06
-1.0122128e-05
-1.1248853e-05
-1.2099261e-05
-1.2895447e-05
-1.3271596e-05
-1.3501855e-05
-1.3321075e-05
-1.2948798e-05
-1.2308156e-05
-1.1508777e-05
-1.0092293e-05
2.08948e-07
-9.4215575e-07
-1.8838298e-06
-2.8511242e-06
-3.85133e-06
-4.900444e-06
-6.0027294e-06
-7.1447743e-06
-8.2994621e-06
-9.4321054e-06
-1.0490513e-05
-1.143585e-05
-1.217417e-05
-1.267978e-05
-1.2933479e-05
-1.2843451e-05
-1.2541617e-05
-1.1942001e-05
-1.1186185e-05
-9.8063812e-06
1.8099452e-07
-8.1375664e-07
-1.6620627e-06
-2.5324732e-06
-3.4320338e-06
-4.3769381e-06
-5.3730669e-06
-6.4090294e-06
-7.4659762e-06
-8.5135206e-06
-9.5164231e-06
-1.0419501e-05
-1.1162198e-05
-1.1700871e-05
-1.1985645e-05
-1.2000592e-05
-1.1733971e-05
-1.1207639e-05
-1.0535017e-05
-9.2211359e-06
1.5034441e-07
-6.7411965e-07
-1.4071329e-06
-2.1570612e-06
-2.9307282e-06
-3.7433686e-06
-4.6015529e-06
-5.4971686e-06
-6.4162754e-06
-7.3378025e-06
-8.2297722e-06
-9.0489099e-06
-9.7491261e-06
-1.0272662e-05
-1.0592365e-05
-1.0658995e-05
-1.0407593e-05
-1.0009066e-05
-9.4515678e-06
-8.2477703e-06
1.159335e-07
-5.1857906e-07
-1.10598e-06
-1.7046641e-06
-2.3207554e-06
-2.967298e-06
-3.6507234e-06
-4.3654107e-06
-5.1014923e-06
-5.8450264e-06
-6.5717651e-06
-7.2519027e-06
-7.8470196e-06
-8.3063186e-06
-8.6037276e-06
-8.6805944e-06
-8.5109857e-06
-8.2269109e-06
-7.7720099e-06
-6.7682729e-06
7.6554143e-08
-3.4206932e-07
-7.4150562e-07
-1.1466104e-06
-1.5624695e-06
-1.997911e-06
-2.4584294e-06
-2.9399736e-06
-3.4376414e-06
-3.9428014e-06
-4.4405669e-06
-4.9139994e-06
-5.3315605e-06
-5.663705e-06
-5.8840313e-06
-5.9564216e-06
-5.8788971e-06
-5.7035354e-06
-5.3654431e-06
-4.6648088e-06
4.0645086e-08
-1.3446834e-07
-2.8043926e-07
-4.3394479e-07
-5.8811039e-07
-7.5049372e-07
-9.2235384e-07
-1.1020274e-06
-1.2883759e-06
-1.4783301e-06
-1.6663024e-06
-1.8468396e-06
-2.0064507e-06
-2.1356961e-06
-2.2236787e-06
-2.2563963e-06
-2.2347793e-06
-2.182302e-06
-2.0500186e-06
-1.7766625e-06
-6.7520944e-08
6.0151266e-08
-9.0672382e-09
-3.8725845e-09
5.6001106e-09
5.3466871e-10
7.3540309e-09
-6.2898484e-09
3.3193148e-09
-2.6903215e-08
3.4359971e-08
-3.4420257e-08
4.4004148e-08
1.063886e-08
-1.2046139e-09
4.1791682e-09
5.542211e-09
1.2677976e-08
5.3153895e-09
1.1902022e-08
8.2193223e-09
-1.3520882e-08
3.6821915e-08
-7.7237845e-09
2.201455e-08
7.8150677e-09
6.1872686e-09
4.9768897e-09
5.3045732e-09
5.0769672e-09
5.5225503e-09
-2.0023476e-08
3.2796706e-08
4.9851622e-09
8.0081407e-09
6.1781565e-09
5.6318655e-09
5.6163078e-09
5.7654379e-09
8.9780155e-09
3.6466175e-09
6.5864425e-09
3.4915669e-09
-6.4680846e-09
1.8523466e-08
-3.4090698e-09
1.2833813e-08
5.0913595e-09
4.1059605e-09
4.4387117e-09
3.8361196e-09