/*--------------------------------*- C++ -*----------------------------------*\
| =========                 |                                                 |
| \\      /  F ield         | OpenFOAM: The Open Source CFD Toolbox           |
|  \\    /   O peration     | Version:  2406                                  |
|   \\  /    A nd           | Website:  www.openfoam.com                      |
|    \\/     M anipulation  |                                                 |
\*---------------------------------------------------------------------------*/
FoamFile
{
    version     2.0;
    format      ascii;
    arch        "LSB;label=32;scalar=64";
    class       volScalarField;
    location    "100";
    object      initialResidual:Ux;
}
// * * * * * * * * * * * * * * * * * * * * * * * * * * * * * * * * * * * * * //

dimensions      [0 0 0 0 0 0 0];

internalField   nonuniform List<scalar> 
69120
(
7.1577621e-07
1.1862678e-06
2.7604985e-06
3.2213798e-06
3.9723339e-06
4.3666598e-06
4.6821905e-06
4.849408e-06
4.9432659e-06
4.9500067e-06
4.9020574e-06
4.8170942e-06
4.704503e-06
4.5699899e-06
4.4240035e-06
4.2784813e-06
4.1347084e-06
3.9998742e-06
3.8646974e-06
3.7437119e-06
1.3597859e-06
2.2557404e-06
5.2615101e-06
6.1502936e-06
7.5945048e-06
8.359119e-06
8.9738524e-06
9.304674e-06
9.494539e-06
9.5166968e-06
9.4330457e-06
9.2772144e-06
9.0673061e-06
8.8143058e-06
8.5382732e-06
8.2622186e-06
7.9885766e-06
7.7314477e-06
7.4729739e-06
7.2415099e-06
2.1461639e-06
3.5647035e-06
8.3443166e-06
9.7772579e-06
1.2097402e-05
1.3339775e-05
1.4345356e-05
1.4897763e-05
1.5224158e-05
1.5280772e-05
1.5166058e-05
1.493312e-05
1.4611116e-05
1.4217728e-05
1.3785078e-05
1.3350254e-05
1.2917201e-05
1.2509042e-05
1.2097298e-05
1.172818e-05
2.8492848e-06
4.7406899e-06
1.1156165e-05
1.3117147e-05
1.627723e-05
1.7996144e-05
1.9400568e-05
2.0193383e-05
2.0679427e-05
2.0797391e-05
2.0679535e-05
2.0396303e-05
1.9987496e-05
1.947726e-05
1.8909118e-05
1.8333786e-05
1.7756845e-05
1.7210554e-05
1.6656744e-05
1.6159367e-05
3.4778733e-06
5.7993094e-06
1.3744095e-05
1.6233097e-05
2.0220985e-05
2.2433091e-05
2.426165e-05
2.5327524e-05
2.6008276e-05
2.6223654e-05
2.6137623e-05
2.5835954e-05
2.5368937e-05
2.4767106e-05
2.4084975e-05
2.3386832e-05
2.2680174e-05
2.2006835e-05
2.1319751e-05
2.0701143e-05
4.0359321e-06
6.7480318e-06
1.6132369e-05
1.9159723e-05
2.3978399e-05
2.6712772e-05
2.9003352e-05
3.0385723e-05
3.1306071e-05
3.166311e-05
3.1650709e-05
3.1367926e-05
3.0875511e-05
3.0210369e-05
2.9437713e-05
2.8635605e-05
2.78138e-05
2.7024425e-05
2.6212188e-05
2.5478631e-05
4.5268088e-06
7.5929327e-06
1.8339145e-05
2.1923046e-05
2.7587131e-05
3.0882879e-05
3.3683882e-05
3.5435618e-05
3.664937e-05
3.7200117e-05
3.7309995e-05
3.7089216e-05
3.6609007e-05
3.5912633e-05
3.5075778e-05
3.419066e-05
3.3269667e-05
3.2376162e-05
3.1447185e-05
3.0605119e-05
4.953293e-06
8.3389137e-06
2.0377225e-05
2.4541496e-05
3.107414e-05
3.4978296e-05
3.8346839e-05
4.0529095e-05
4.2098278e-05
4.2902375e-05
4.3190182e-05
4.3080789e-05
4.265587e-05
4.1965e-05
4.1094104e-05
4.0150067e-05
3.9148265e-05
3.8164438e-05
3.7128429e-05
3.618538e-05
5.317728e-06
8.9898665e-06
2.2254668e-05
2.7026703e-05
3.4456742e-05
3.9022327e-05
4.3022604e-05
4.5703803e-05
4.7698062e-05
4.8822623e-05
4.9351246e-05
4.9409419e-05
4.9089107e-05
4.8446051e-05
4.7576133e-05
4.660148e-05
4.5540758e-05
4.4483373e-05
4.3352372e-05
4.2317923e-05
5.622113e-06
9.5488456e-06
2.397538e-05
2.9384215e-05
3.7743526e-05
4.302771e-05
4.7729421e-05
5.0984267e-05
5.348029e-05
5.4999781e-05
5.5839587e-05
5.6128846e-05
5.5969457e-05
5.5423047e-05
5.4595042e-05
5.3623398e-05
5.2530283e-05
5.1420162e-05
5.0209633e-05
4.9096445e-05
5.8681532e-06
1.0018228e-05
2.55397e-05
3.1614187e-05
4.0935204e-05
4.6997511e-05
5.2474306e-05
5.638276e-05
5.9463651e-05
6.1459714e-05
6.2688727e-05
6.3280431e-05
6.334602e-05
6.295253e-05
6.221435e-05
6.1285788e-05
6.0192598e-05
5.905577e-05
5.7785738e-05
5.6610628e-05
6.0573789e-06
1.0399889e-05
2.6945022e-05
3.3712089e-05
4.4025446e-05
5.0925964e-05
5.7253835e-05
6.1900006e-05
6.5654543e-05
6.82157e-05
6.9919672e-05
7.0893412e-05
7.1256429e-05
7.1080452e-05
7.0488009e-05
6.9650172e-05
6.8596193e-05
6.7465062e-05
6.61613e-05
6.494637e-05
6.1912392e-06
1.0695383e-05
2.8186419e-05
3.5669416e-05
4.7001711e-05
5.4799282e-05
6.205489e-05
6.7525786e-05
7.2047527e-05
7.5268707e-05
7.7541017e-05
7.8984868e-05
7.9726695e-05
7.9841914e-05
7.946008e-05
7.8769264e-05
7.7801915e-05
7.6716458e-05
7.5411702e-05
7.4185521e-05
6.2711996e-06
1.0906123e-05
2.9257295e-05
3.7474419e-05
4.9846102e-05
5.8596486e-05
6.6855377e-05
7.3239499e-05
7.8625687e-05
8.2607545e-05
8.5548885e-05
8.7559457e-05
8.8770771e-05
8.9260598e-05
8.9164067e-05
8.868624e-05
8.78622e-05
8.687115e-05
8.5606347e-05
8.4405164e-05
6.2988362e-06
1.1033556e-05
3.0150029e-05
3.9112859e-05
5.253625e-05
6.2290254e-05
7.162498e-05
7.9010731e-05
8.5360972e-05
9.0208953e-05
9.3926764e-05
9.660901e-05
9.8389935e-05
9.9347967e-05
9.9621966e-05
9.9433677e-05
9.8819958e-05
9.7981957e-05
9.6807506e-05
9.5676484e-05
6.2759229e-06
1.1079334e-05
3.0856628e-05
4.0568773e-05
5.5046236e-05
6.5847833e-05
7.6325963e-05
8.4799869e-05
9.2214577e-05
9.8037699e-05
0.00010264531
0.00010611206
0.00010857206
0.0001101023
0.00011084312
0.00011103227
0.00011070718
0.00011009186
0.00010906883
0.00010806327
6.204509e-06
1.1045465e-05
3.1369357e-05
4.182525e-05
5.7347547e-05
6.9232003e-05
8.0914057e-05
9.0558808e-05
9.9137397e-05
0.00010604675
0.00011166222
0.00011603338
0.00011929086
0.00012150767
0.00012282295
0.00012348935
0.0001235433
0.00012323229
0.00012243355
0.0001216201
6.0869845e-06
1.0934451e-05
3.1681348e-05
4.2865214e-05
5.941008e-05
7.2402124e-05
8.5339449e-05
9.6231785e-05
0.00010607062
0.00011417756
0.00012092214
0.00012632359
0.00013050511
0.00013353287
0.0001355416
0.00013679733
0.00013733346
0.00013742118
0.00013693246
0.00013639022
5.9261303e-06
1.0749401e-05
3.1787168e-05
4.3672198e-05
6.1203169e-05
7.5315246e-05
8.9547891e-05
0.00010175635
0.0001129465
0.00012236053
0.00013035685
0.00013691889
0.0001421581
0.00014613045
0.00014896266
0.00015093207
0.00015206663
0.00015266094
0.0001525817
0.00015240318
5.7251527e-06
1.049412e-05
3.1683347e-05
4.4231107e-05
6.2696641e-05
7.7927309e-05
9.3481928e-05
0.00010706451
0.00011968928
0.00013051572
0.00013988557
0.00014774107
0.00015417717
0.0001592359
0.00016303194
0.00016585135
0.00016771376
0.0001689363
0.00016938043
0.00016967242
5.4876993e-06
1.017317e-05
3.1368837e-05
4.4528943e-05
6.3861881e-05
8.0194385e-05
9.7082252e-05
0.00011208407
0.00012621643
0.00013855375
0.0001494156
0.00015869773
0.00016647352
0.00017276702
0.00017767647
0.00018149345
0.00018422603
0.00018621229
0.00018730846
0.00018819257
5.217858e-06
9.7918996e-06
3.0845403e-05
4.4555487e-05
6.4672881e-05
8.207398e-05
0.00010028916
0.00011674011
0.00013244004
0.0001463771
0.00015884325
0.00016968286
0.00017894243
0.00018662371
0.00019280376
0.00019777601
0.00020153325
0.0002044322
0.00020632398
0.00020793694
4.9201345e-06
9.3564479e-06
3.0117939e-05
4.4303926e-05
6.5107264e-05
8.3526357e-05
0.00010304412
0.00012095667
0.00013826846
0.00015388153
0.00016805514
0.00018057777
0.00019146372
0.00020068797
0.0002083014
0.0002145951
0.00021954251
0.00022351589
0.00022636136
0.00022885493
4.5994149e-06
8.8737098e-06
2.9194682e-05
4.3771392e-05
6.514725e-05
8.4515853e-05
0.00010529139
0.00012465854
0.00014360824
0.00016095802
0.00017692982
0.00019125246
0.00020390282
0.0002148245
0.00022403715
0.00023182481
0.00023813726
0.0002433583
0.00024732927
0.00025086977
4.2609051e-06
8.3512731e-06
2.8087361e-05
4.295942e-05
6.4780542e-05
8.5012165e-05
0.00010697966
0.0001277732
0.00014836614
0.00016749478
0.00018533982
0.00020156742
0.00021611214
0.0002288817
0.00023985945
0.00024931728
0.00025717681
0.00026382843
0.00026910914
0.00027387647
3.9100566e-06
7.7973294e-06
2.6811076e-05
4.1874293e-05
6.4001106e-05
8.4991572e-05
0.00010806374
0.00013023284
0.00015245147
0.00017337971
0.00019315395
0.00021137582
0.00022793308
0.00024269328
0.00025559857
0.00026690328
0.00027649635
0.00028476888
0.00029155413
0.00029774021
3.5524709e-06
7.2205475e-06
2.5384489e-05
4.0527268e-05
6.280982e-05
8.4438051e-05
0.00010850616
0.00013197638
0.00015577841
0.00017850297
0.00020024008
0.00022052615
0.00023919844
0.00025608036
0.00027106833
0.0002843935
0.00029590768
0.00030599592
0.00031448858
0.0003222953
3.193795e-06
6.6299299e-06
2.3829358e-05
3.8934745e-05
6.1214968e-05
8.334426e-05
0.00010827866
0.00013295149
0.00015826851
0.00018275975
0.00020646806
0.00022886529
0.00024973541
0.00026885424
0.00028606849
0.00030158041
0.00031520057
0.00032730031
0.00033770826
0.00034734477
2.8395939e-06
6.034634e-06
2.2170334e-05
3.7117866e-05
5.9232555e-05
8.171234e-05
0.00010736359
0.0001331165
0.00015985309
0.00018605318
0.00021171294
0.00023624185
0.00025936891
0.00028081962
0.00030038772
0.00031824091
0.00033414494
0.00034844893
0.00036098135
0.00037266071
2.4952212e-06
5.4437852e-06
2.0434528e-05
3.5103049e-05
5.6886434e-05
7.9554531e-05
0.00010575506
0.00013244225
0.0001604757
0.00018829726
0.00021585837
0.00024250988
0.00026792547
0.00029177847
0.0003138073
0.00033413974
0.00035249378
0.00036918721
0.0003840503
0.00039798555
2.1656702e-06
4.8662543e-06
1.8650964e-05
3.292097e-05
5.4208215e-05
7.6893532e-05
0.00010345993
0.0001309136
0.00016009434
0.00018941973
0.00021879997
0.00024753266
0.00027523733
0.00030153426
0.00032610536
0.00034903346
0.00036998688
0.00038924241
0.00040663456
0.00042303417
1.855435e-06
4.3104399e-06
1.6849958e-05
3.0606367e-05
5.123722e-05
7.3762629e-05
0.00010049848
0.00012853084
0.00015868351
0.00018936483
0.00022044878
0.00025118676
0.00028114687
0.00030989666
0.00033706165
0.00036267524
0.00038635535
0.00040832783
0.00042843432
0.00044749718
1.5683542e-06
3.7840177e-06
1.5062343e-05
2.8197331e-05
4.8018464e-05
7.020551e-05
9.6904731e-05
0.00012531064
0.00015623594
0.0001880958
0.00022073453
0.00025336588
0.00028551105
0.00031668645
0.00034646271
0.00037482013
0.00040132687
0.0004261478
0.00044913514
0.000471045
1.3074834e-06
3.2937153e-06
1.3318662e-05
2.5734489e-05
4.4604931e-05
6.6276346e-05
9.2726476e-05
0.00012128674
0.00015276404
0.00018559712
0.00021960866
0.00025398477
0.00028820605
0.00032174066
0.0003541075
0.00038523092
0.00041463157
0.00044240354
0.00046841359
0.00049333325
1.0749626e-06
2.8450561e-06
1.1648225e-05
2.3259968e-05
4.1053629e-05
6.2036033e-05
8.8024903e-05
0.00011651012
0.00014830082
0.00018187628
0.00021704699
0.00025298275
0.00028913153
0.00032491764
0.000359813
0.0003936842
0.00042600839
0.00045679958
0.00048594358
0.00051400887
8.7194465e-07
2.4421633e-06
1.0078192e-05
2.0816201e-05
3.7425631e-05
5.7557178e-05
8.2874824e-05
0.00011104882
0.00014290038
0.00017696511
0.00021305201
0.0002503269
0.00028821486
0.0003261021
0.00036342005
0.00039997681
0.00043521194
0.00046905096
0.00050140364
0.0005327173
6.9853267e-07
2.0875512e-06
8.6325935e-06
1.8444455e-05
3.3784338e-05
5.2916778e-05
7.7357689e-05
0.00010498714
0.00013663779
0.00017092048
0.00020765447
0.00024601473
0.00028541473
0.00032520971
0.00036479885
0.00040393213
0.00044201946
0.00047889055
0.00051448455
0.00054911035
5.5380338e-07
1.7820365e-06
7.3314833e-06
1.6183189e-05
3.0193733e-05
4.8197016e-05
7.1571733e-05
9.8426144e-05
0.00012960841
0.0001638244
0.00020091442
0.00024007621
0.00028072429
0.00032219137
0.00036385424
0.00040540638
0.00044623784
0.00048607683
0.00052489766
0.00056285482
4.3584029e-07
1.5246634e-06
6.1901679e-06
1.4066089e-05
2.6716415e-05
4.3482537e-05
6.5618393e-05
9.1471515e-05
0.000121929
0.00015578327
0.00019292138
0.00023257499
0.00027417349
0.00031703663
0.00036053036
0.00040429428
0.00044771036
0.00049040144
0.0005323831
0.00057364127
3.4187742e-07
1.3128116e-06
5.2414743e-06
1.2097217e-05
2.3411607e-05
3.885778e-05
5.9604604e-05
8.4252243e-05
0.00011372096
0.00014692649
0.0001837937
0.00022360878
0.00026583059
0.00030977649
0.00035481461
0.00040053436
0.00044632313
0.00049169668
0.00053671826
0.00058119328
2.6865472e-07
1.1448742e-06
4.4293085e-06
1.0353458e-05
2.0333783e-05
3.4403733e-05
5.3638523e-05
7.6896864e-05
0.00010513743
0.00013740811
0.00017367678
0.00021330854
0.00025580249
0.00030048492
0.00034674053
0.00039411306
0.00044201052
0.00048984212
0.00053772547
0.00058527615
2.1205775e-07
1.0102154e-06
3.7627346e-06
8.8317264e-06
1.752909e-05
3.019435e-05
4.7825586e-05
6.9538584e-05
9.6330693e-05
0.0001273787
0.0001627462
0.00020183656
0.00024423396
0.00028927936
0.00033638975
0.00038506818
0.00043475997
0.0004847708
0.00053527972
0.00058570572
1.7058746e-07
9.0199026e-07
3.2254685e-06
7.5344484e-06
1.503333e-05
2.6292281e-05
4.2263783e-05
6.2308822e-05
8.7459638e-05
0.00011703179
0.00015116953
0.00018939094
0.00023130509
0.0002763194
0.00032389201
0.00037349031
0.00042461506
0.00047647382
0.00052931449
0.00058235571
1.4012553e-07
8.1994174e-07
2.8002543e-06
6.4525535e-06
1.2870285e-05
2.2744195e-05
3.7038831e-05
5.533164e-05
7.8681763e-05
0.00010654839
0.00013917061
0.00017615543
0.00021723792
0.00026180411
0.00030942398
0.00035952309
0.00041167742
0.00046500382
0.00051982725
0.00057516459
1.1764247e-07
7.5573898e-07
2.4659608e-06
5.566023e-06
1.1101179e-05
1.9525014e-05
3.2218947e-05
4.8717319e-05
7.0145579e-05
9.6111295e-05
0.00012695466
0.0001623852
0.00020223062
0.00024598033
0.00029321868
0.00034336065
0.00039610606
0.00045047604
0.00050688206
0.00056413999
1.001993e-07
7.0343555e-07
2.2002587e-06
4.8484387e-06
9.5740129e-06
1.678415e-05
2.7845277e-05
4.2555847e-05
6.198238e-05
8.5892367e-05
0.00011472886
0.00014830864
0.00018657095
0.00022905858
0.00027548372
0.00032526078
0.00037811475
0.0004330676
0.00049061131
0.00054936218
8.9779025e-08
6.5664928e-07
1.9838658e-06
4.2645119e-06
8.2948959e-06
1.4549728e-05
2.3853556e-05
3.6911029e-05
5.4296828e-05
7.6041836e-05
0.00010268575
0.00013415507
0.00017050794
0.00021135872
0.00025654255
0.00030543989
0.00035798735
0.000413013
0.00047121303
0.00053098338
6.5834588e-08
6.1053509e-07
1.7840426e-06
3.7742115e-06
7.2205521e-06
1.2572991e-05
2.0436751e-05
3.1808197e-05
4.715735e-05
6.6677405e-05
9.0990515e-05
0.00012013429
0.00015428956
0.00019314734
0.00023668188
0.00028425747
0.00033594746
0.00039062405
0.00044897141
0.0005092252
1.0048127e-07
5.3138883e-07
1.5915006e-06
3.3322826e-06
6.2916179e-06
1.0853702e-05
1.7486754e-05
2.7231203e-05
4.0587071e-05
5.7873526e-05
7.9767386e-05
0.00010642096
0.00013813676
0.00017468536
0.00021619496
0.00026201404
0.0003123884
0.00036612587
0.00042410877
0.00048440125
1.4787943e-07
4.892957e-07
1.3879108e-06
2.9044152e-06
5.4411069e-06
9.306233e-06
1.5031753e-05
2.3015525e-05
3.4557377e-05
4.9653765e-05
6.9087929e-05
9.3139984e-05
0.0001222256
0.00015619755
0.0001953504
0.00023901278
0.0002876222
0.00033994412
0.00039703619
0.00045673388
1.7521001e-07
4.3494847e-07
1.1796919e-06
2.4562161e-06
4.602033e-06
7.847308e-06
1.2657914e-05
1.9467836e-05
2.8862973e-05
4.1989237e-05
5.8963653e-05
8.0355851e-05
0.00010667135
0.00013785278
0.00017436814
0.00021552006
0.00026195544
0.00031239379
0.0003680922
0.0004266792
2.0646468e-07
3.2582993e-07
9.3806921e-07
1.9663952e-06
3.7167369e-06
6.3799813e-06
1.0349979e-05
1.6004525e-05
2.3716815e-05
3.4787156e-05
4.9346292e-05
6.8071808e-05
9.1521626e-05
0.00011975163
0.00015340037
0.00019174137
0.00023564541
0.00028377566
0.00033761652
0.00039457652
2.0868388e-07
2.0131438e-07
6.1510857e-07
1.3798507e-06
2.7267261e-06
4.8219253e-06
7.999758e-06
1.256824e-05
1.9036521e-05
2.776783e-05
4.0146311e-05
5.6246656e-05
7.6764441e-05
0.00010192997
0.00013252385
0.0001678043
0.00020887376
0.0002543249
0.00030589618
0.00036075578
1.5522389e-07
5.7167214e-08
2.3077822e-07
6.897855e-07
1.6074924e-06
3.1279997e-06
5.5381058e-06
9.0886549e-06
1.4229091e-05
2.1434255e-05
3.1082258e-05
4.4835649e-05
6.2359226e-05
8.4390838e-05
0.00011175942
0.00014376692
0.00018173873
0.00022419209
0.00027313566
0.00032548049
1.7621479e-08
-7.6485182e-08
-1.9169281e-07
-5.9365953e-08
4.0930573e-07
1.3491366e-06
3.0029253e-06
5.5800162e-06
9.456522e-06
1.5055779e-05
2.2888459e-05
3.3757844e-05
4.8144625e-05
6.717907e-05
9.1129173e-05
0.0001196673
0.00015428294
0.00019345193
0.00023944188
0.00028891905
-2.3779418e-08
-2.9063486e-07
-4.5572907e-07
-7.4976154e-07
-6.9813043e-07
-3.1132093e-07
6.0309824e-07
2.235871e-06
4.8988084e-06
8.9620723e-06
1.4889358e-05
2.3318099e-05
3.4930152e-05
5.038197e-05
7.0626516e-05
9.5632263e-05
0.00012658061
0.00016216949
0.00020485539
0.00025115385
-1.1198205e-07
-2.2253066e-07
-4.8037784e-07
-1.4482506e-06
-1.4084875e-06
-1.5359541e-06
-1.329264e-06
-5.7934103e-07
9.4128305e-07
3.5394197e-06
7.6302736e-06
1.3747665e-05
2.2535187e-05
3.4632947e-05
5.1044342e-05
7.1904236e-05
9.8891278e-05
0.00013054818
0.00016945613
0.00021226016
-1.0364986e-07
-1.9792751e-07
-7.4519645e-07
-1.4575608e-06
-1.6670091e-06
-2.6411173e-06
-2.3864467e-06
-2.4476116e-06
-1.9796357e-06
-7.1461926e-07
1.6644526e-06
5.6082118e-06
1.1678396e-05
2.0482839e-05
3.2988929e-05
4.9697487e-05
7.1623041e-05
9.9128389e-05
0.00013355422
0.00017249743
-6.8582342e-08
-1.939685e-07
-7.8466354e-07
-1.4800094e-06
-1.8828635e-06
-2.6313819e-06
-3.1288237e-06
-3.8083271e-06
-3.6181237e-06
-3.4558242e-06
-2.5397956e-06
-5.1388202e-07
3.0719749e-06
8.7628604e-06
1.7434424e-05
2.974762e-05
4.6675093e-05
6.9001971e-05
9.7603483e-05
0.00013279641
4.1698692e-08
-2.6506813e-07
-7.8104502e-07
-1.469208e-06
-1.9994015e-06
-2.7230277e-06
-3.3572589e-06
-4.1016788e-06
-4.712024e-06
-4.9145948e-06
-4.9692693e-06
-4.4006934e-06
-2.8390062e-06
1.6029304e-07
5.332799e-06
1.3374017e-05
2.5239793e-05
4.194581e-05
6.4465602e-05
9.3671972e-05
3.4767506e-08
-2.4752375e-07
-7.7105495e-07
-1.4654506e-06
-2.038763e-06
-2.7660026e-06
-3.4677395e-06
-4.3264002e-06
-4.9009894e-06
-5.75614e-06
-6.0906195e-06
-6.4237439e-06
-6.2043043e-06
-5.2039767e-06
-2.8529335e-06
1.4739709e-06
8.6424863e-06
1.972254e-05
3.5813054e-05
5.8211216e-05
3.6147631e-08
-2.3143302e-07
-7.578991e-07
-1.4723338e-06
-2.0636093e-06
-2.8275122e-06
-3.4918608e-06
-4.4395011e-06
-5.0447444e-06
-6.0458412e-06
-6.518051e-06
-7.5015153e-06
-7.5027232e-06
-8.0210067e-06
-7.5050973e-06
-5.9143795e-06
-2.5547968e-06
3.5564752e-06
1.3507327e-05
2.8776397e-05
3.7026678e-08
-2.1227688e-07
-7.436412e-07
-1.4739232e-06
-2.0916131e-06
-2.8941722e-06
-3.5532123e-06
-4.5279825e-06
-5.100887e-06
-6.170368e-06
-6.7702199e-06
-7.8315599e-06
-8.2187199e-06
-9.38559e-06
-9.2177798e-06
-9.8256204e-06
-8.9231269e-06
-6.5200788e-06
-1.6464338e-06
7.1315894e-06
3.7323231e-08
-1.9047148e-07
-7.2796727e-07
-1.4688242e-06
-2.1231583e-06
-2.9504286e-06
-3.6346152e-06
-4.6336297e-06
-5.2164778e-06
-6.2664631e-06
-6.8398642e-06
-7.9719631e-06
-8.5832477e-06
-9.8134042e-06
-1.0163344e-05
-1.1609025e-05
-1.1389746e-05
-1.202065e-05
-1.0295338e-05
-6.5225839e-06
3.7153242e-08
-1.6739161e-07
-7.1045298e-07
-1.4566757e-06
-2.1562618e-06
-2.994789e-06
-3.7297479e-06
-4.7380013e-06
-5.3560905e-06
-6.4183174e-06
-6.9744293e-06
-8.0807882e-06
-8.6155219e-06
-1.0046567e-05
-1.0565043e-05
-1.2385568e-05
-1.2060246e-05
-1.5637599e-05
-1.3312196e-05
-1.3937455e-05
3.6520433e-08
-1.4314774e-07
-6.9330016e-07
-1.4334072e-06
-2.1945202e-06
-3.0177092e-06
-3.8485485e-06
-4.8190563e-06
-5.538537e-06
-6.5552119e-06
-7.1825143e-06
-8.2379413e-06
-8.7900476e-06
-1.0104313e-05
-1.0667718e-05
-1.2554366e-05
-1.3074176e-05
-1.5183583e-05
-1.5677622e-05
-1.7689991e-05
3.5595852e-08
-1.199043e-07
-6.7353054e-07
-1.4052423e-06
-2.2262929e-06
-3.0308409e-06
-3.9747731e-06
-4.8827146e-06
-5.7576831e-06
-6.6708056e-06
-7.4587799e-06
-8.3742623e-06
-9.0870162e-06
-1.0217988e-05
-1.090766e-05
-1.2478795e-05
-1.337279e-05
-1.5460383e-05
-1.6083622e-05
-1.8654437e-05
3.4572792e-08
-9.9947832e-08
-6.4784938e-07
-1.3798063e-06
-2.2370667e-06
-3.0517152e-06
-4.080349e-06
-4.9537358e-06
-5.9797859e-06
-6.7945098e-06
-7.7587275e-06
-8.5430157e-06
-9.4014933e-06
-1.0427847e-05
-1.1176439e-05
-1.2682016e-05
-1.3500285e-05
-1.5581063e-05
-1.6181558e-05
-1.9346786e-05
3.3539986e-08
-8.2969821e-08
-6.2102061e-07
-1.3500149e-06
-2.2371733e-06
-3.0642208e-06
-4.1766929e-06
-5.0146156e-06
-6.2142592e-06
-6.9056276e-06
-8.10098e-06
-8.7037798e-06
-9.7884509e-06
-1.0634107e-05
-1.1556871e-05
-1.2890715e-05
-1.3880985e-05
-1.5691878e-05
-1.6534311e-05
-1.9115856e-05
3.2709579e-08
-6.9372165e-08
-5.9678096e-07
-1.3113166e-06
-2.2332266e-06
-3.058665e-06
-4.2632397e-06
-5.0710117e-06
-6.4302776e-06
-7.0436215e-06
-8.4208803e-06
-8.9232753e-06
-1.0166831e-05
-1.090755e-05
-1.197347e-05
-1.3161752e-05
-1.4329756e-05
-1.5936327e-05
-1.6977738e-05
-1.9304173e-05
3.1997302e-08
-6.0336184e-08
-5.7413148e-07
-1.2699542e-06
-2.2134248e-06
-3.0521732e-06
-4.3070772e-06
-5.1610705e-06
-6.5662583e-06
-7.2712764e-06
-8.6363164e-06
-9.2748793e-06
-1.0455853e-05
-1.1314062e-05
-1.2357321e-05
-1.3547182e-05
-1.4798114e-05
-1.6297821e-05
-1.7502537e-05
-1.9578829e-05
2.6127955e-08
-4.8206282e-08
-5.4665882e-07
-1.2260137e-06
-2.1689555e-06
-3.0530847e-06
-4.298627e-06
-5.2826824e-06
-6.6329815e-06
-7.5493494e-06
-8.8040365e-06
-9.6680618e-06
-1.0756937e-05
-1.1732125e-05
-1.2821714e-05
-1.3929526e-05
-1.5387884e-05
-1.6676681e-05
-1.815752e-05
-1.9956182e-05
2.4657775e-08
-3.7685661e-08
-5.0822116e-07
-1.1800019e-06
-2.1057765e-06
-3.0488871e-06
-4.2619014e-06
-5.3894825e-06
-6.6891357e-06
-7.7911893e-06
-9.0129557e-06
-9.9979787e-06
-1.115843e-05
-1.2085252e-05
-1.3401397e-05
-1.4307082e-05
-1.6040443e-05
-1.7184134e-05
-1.874816e-05
-2.06828e-05
2.3238376e-08
-2.9653876e-08
-4.7081978e-07
-1.1298794e-06
-2.0331362e-06
-3.0189659e-06
-4.218609e-06
-5.4442369e-06
-6.7575159e-06
-7.9668889e-06
-9.2593161e-06
-1.0275992e-05
-1.1602336e-05
-1.2442983e-05
-1.3991109e-05
-1.4778692e-05
-1.6659587e-05
-1.7860588e-05
-1.930893e-05
-2.157541e-05
2.1746044e-08
-2.2657762e-08
-4.3539566e-07
-1.0741555e-06
-1.9570278e-06
-2.9592455e-06
-4.1700034e-06
-5.446578e-06
-6.8202499e-06
-8.0961892e-06
-9.4915149e-06
-1.0552427e-05
-1.2014969e-05
-1.2862115e-05
-1.4538575e-05
-1.5348839e-05
-1.7277306e-05
-1.8602082e-05
-1.9989581e-05
-2.244061e-05
2.0272763e-08
-1.647921e-08
-4.0301561e-07
-1.014064e-06
-1.8768057e-06
-2.875968e-06
-4.1051622e-06
-5.4098673e-06
-6.8539541e-06
-8.1945623e-06
-9.6834983e-06
-1.0834965e-05
-1.2381382e-05
-1.332484e-05
-1.5064728e-05
-1.5964084e-05
-1.79448e-05
-1.9351666e-05
-2.0809492e-05
-2.3297905e-05
2.0532081e-08
-1.3741675e-08
-3.7584908e-07
-9.5488905e-07
-1.7942103e-06
-2.776657e-06
-4.0181192e-06
-5.3399598e-06
-6.8485939e-06
-8.2573546e-06
-9.8308142e-06
-1.1102484e-05
-1.2714738e-05
-1.3796698e-05
-1.5590431e-05
-1.6597009e-05
-1.866021e-05
-2.0123474e-05
-2.1718885e-05
-2.420867e-05
1.9382635e-08
-1.1237718e-08
-3.5445888e-07
-8.9797867e-07
-1.7091136e-06
-2.6641054e-06
-3.9080523e-06
-5.2383229e-06
-6.8019975e-06
-8.2772563e-06
-9.9370436e-06
-1.1334253e-05
-1.3020757e-05
-1.4254358e-05
-1.6115937e-05
-1.7241459e-05
-1.9405679e-05
-2.0936042e-05
-2.2685161e-05
-2.5195149e-05
1.762077e-08
-7.1402758e-09
-3.3122938e-07
-8.3997212e-07
-1.6205199e-06
-2.5411435e-06
-3.7779621e-06
-5.107023e-06
-6.7158572e-06
-8.250105e-06
-9.9991652e-06
-1.1519101e-05
-1.3297798e-05
-1.4687103e-05
-1.6634116e-05
-1.7893618e-05
-2.0166596e-05
-2.1791204e-05
-2.3697684e-05
-2.625276e-05
1.6439649e-08
-4.1978873e-09
-3.0853954e-07
-7.8191013e-07
-1.5296392e-06
-2.4091997e-06
-3.6297492e-06
-4.9469591e-06
-6.5902263e-06
-8.1736978e-06
-1.0014392e-05
-1.1649286e-05
-1.3537276e-05
-1.5083518e-05
-1.713568e-05
-1.8545022e-05
-2.0936176e-05
-2.2685573e-05
-2.4748228e-05
-2.7382534e-05
1.5628008e-08
-1.4650225e-09
-2.8601558e-07
-7.2504276e-07
-1.4386566e-06
-2.273315e-06
-3.4680372e-06
-4.7629416e-06
-6.4277155e-06
-8.0484438e-06
-9.9764829e-06
-1.1719241e-05
-1.373111e-05
-1.5434733e-05
-1.7612595e-05
-1.9185999e-05
-2.1705111e-05
-2.3615318e-05
-2.5827573e-05
-2.8585658e-05
1.5196876e-08
4.8147708e-11
-2.6512774e-07
-6.7184176e-07
-1.3501858e-06
-2.1371565e-06
-3.296655e-06
-4.5583976e-06
-6.2313559e-06
-7.8749248e-06
-9.8866887e-06
-1.172371e-05
-1.3873558e-05
-1.5728417e-05
-1.8058545e-05
-1.9803067e-05
-2.2472516e-05
-2.4569643e-05
-2.6938446e-05
-2.9851132e-05
1.4982106e-08
8.6539775e-10
-2.502713e-07
-6.273196e-07
-1.2666892e-06
-2.0026093e-06
-3.1205641e-06
-4.3388162e-06
-6.0073439e-06
-7.6570916e-06
-9.7427558e-06
-1.1660382e-05
-1.3956185e-05
-1.5956636e-05
-1.8464215e-05
-2.0382319e-05
-2.3231621e-05
-2.5533746e-05
-2.807969e-05
-3.1169397e-05
1.3284328e-08
-2.242432e-09
-2.3110767e-07
-5.8538427e-07
-1.1839583e-06
-1.8705828e-06
-2.9438131e-06
-4.1110718e-06
-5.7625277e-06
-7.4025291e-06
-9.549571e-06
-1.1533852e-05
-1.3974977e-05
-1.6116576e-05
-1.8819225e-05
-2.0919775e-05
-2.3971998e-05
-2.6509624e-05
-2.9239059e-05
-3.2549177e-05
1.1077895e-08
-1.9724666e-10
-2.1045251e-07
-5.371332e-07
-1.0991118e-06
-1.7399649e-06
-2.7679079e-06
-3.8815605e-06
-5.5059965e-06
-7.1251296e-06
-9.3154143e-06
-1.1354692e-05
-1.3931828e-05
-1.6213427e-05
-1.9119228e-05
-2.1415683e-05
-2.4686713e-05
-2.7494104e-05
-3.0421382e-05
-3.3976262e-05
9.8693036e-09
2.9173639e-09
-1.9084106e-07
-4.9399207e-07
-1.0199928e-06
-1.6174799e-06
-2.5983046e-06
-3.6556532e-06
-5.2420956e-06
-6.8282181e-06
-9.0433025e-06
-1.112335e-05
-1.382452e-05
-1.6238723e-05
-1.935798e-05
-2.1854515e-05
-2.5374489e-05
-2.8473747e-05
-3.1626747e-05
-3.5445812e-05
8.5480991e-09
6.1747023e-09
-1.7337214e-07
-4.584263e-07
-9.491097e-07
-1.5068889e-06
-2.4376764e-06
-3.438563e-06
-4.9764919e-06
-6.5240739e-06
-8.7431062e-06
-1.0851359e-05
-1.3662161e-05
-1.6195189e-05
-1.9542973e-05
-2.2227279e-05
-2.6039399e-05
-2.9443785e-05
-3.2845753e-05
-3.6984628e-05
8.1195664e-09
4.4846535e-09
-1.5928156e-07
-4.2744468e-07
-8.8320713e-07
-1.4092181e-06
-2.2842532e-06
-3.2376909e-06
-4.7166859e-06
-6.2244934e-06
-8.4268411e-06
-1.0551089e-05
-1.3453982e-05
-1.6093751e-05
-1.9672516e-05
-2.2544567e-05
-2.6675698e-05
-3.0416317e-05
-3.4075468e-05
-3.860701e-05
7.9988505e-09
2.3270972e-09
-1.4593721e-07
-4.0230682e-07
-8.2400547e-07
-1.3246385e-06
-2.1485952e-06
-3.0554952e-06
-4.4684655e-06
-5.940471e-06
-8.103754e-06
-1.0243497e-05
-1.3214431e-05
-1.595667e-05
-1.9761312e-05
-2.2818185e-05
-2.7304513e-05
-3.138256e-05
-3.5359707e-05
-4.0293847e-05
7.3552897e-09
-8.8094421e-11
-1.3064561e-07
-3.8292251e-07
-7.5420918e-07
-1.2758309e-06
-1.9890225e-06
-2.941357e-06
-4.2009498e-06
-5.7403813e-06
-7.770945e-06
-9.956269e-06
-1.2960438e-05
-1.5818575e-05
-1.9814347e-05
-2.3083405e-05
-2.7931454e-05
-3.2366281e-05
-3.6728188e-05
-4.2037318e-05
7.1088024e-09
-1.3808297e-09
-1.2685492e-07
-3.6299418e-07
-7.1265269e-07
-1.2064652e-06
-1.8879966e-06
-2.8038459e-06
-4.0036545e-06
-5.5367649e-06
-7.4552334e-06
-9.8065747e-06
-1.2618731e-05
-1.5827394e-05
-1.9796732e-05
-2.3371237e-05
-2.8586103e-05
-3.3414042e-05
-3.8203235e-05
-4.3888178e-05
6.7459727e-09
-1.0264851e-09
-1.2092609e-07
-3.4619416e-07
-6.8027685e-07
-1.153431e-06
-1.8092747e-06
-2.6943368e-06
-3.8584295e-06
-5.3601241e-06
-7.2594357e-06
-9.6103089e-06
-1.2459291e-05
-1.5803436e-05
-1.9772109e-05
-2.3820818e-05
-2.9305874e-05
-3.4613958e-05
-3.9802588e-05
-4.5948495e-05
6.4838481e-09
-7.9685236e-10
-1.1605345e-07
-3.3304263e-07
-6.5580887e-07
-1.1140904e-06
-1.7521237e-06
-2.6174544e-06
-3.7616758e-06
-5.2476631e-06
-7.1417243e-06
-9.509319e-06
-1.2415121e-05
-1.5882403e-05
-1.9992976e-05
-2.4593061e-05
-2.9978759e-05
-3.60567e-05
-4.1606077e-05
-4.8303761e-05
6.0044076e-09
9.557457e-10
-1.0906457e-07
-3.2080576e-07
-6.3828658e-07
-1.0906928e-06
-1.7231944e-06
-2.5840106e-06
-3.7277379e-06
-5.2213436e-06
-7.1362827e-06
-9.5526956e-06
-1.2543488e-05
-1.6156912e-05
-2.0460417e-05
-2.5424298e-05
-3.1011252e-05
-3.7849886e-05
-4.3765727e-05
-5.1097215e-05
5.7162506e-09
2.3923823e-09
-1.0515181e-07
-3.1637355e-07
-6.355196e-07
-1.0925114e-06
-1.734223e-06
-2.6102734e-06
-3.7801694e-06
-5.3153424e-06
-7.2941748e-06
-9.804731e-06
-1.2928217e-05
-1.6732364e-05
-2.1299841e-05
-2.660976e-05
-3.2662111e-05
-4.0107005e-05
-4.6502615e-05
-5.4547929e-05
5.5396363e-09
4.7525255e-09
-1.0324193e-07
-3.230791e-07
-6.5661359e-07
-1.1358241e-06
-1.8112288e-06
-2.7349769e-06
-3.9735992e-06
-5.6014482e-06
-7.706707e-06
-1.0383532e-05
-1.3723388e-05
-1.7814343e-05
-2.2742236e-05
-2.8535703e-05
-3.5127904e-05
-4.2952113e-05
-5.0675047e-05
-5.9218035e-05
2.7489021e-06
2.4179663e-06
2.1353565e-06
1.9036876e-06
1.7064168e-06
1.5417053e-06
1.4018182e-06
1.2794101e-06
1.1723411e-06
1.0793083e-06
9.9760452e-07
9.2346799e-07
8.5577642e-07
7.9529949e-07
7.4033855e-07
6.9024329e-07
6.4424926e-07
6.0210091e-07
5.6283265e-07
5.2587121e-07
4.9177605e-07
4.6015618e-07
4.3031423e-07
4.020815e-07
3.7484336e-07
3.4882794e-07
3.2452566e-07
3.0144269e-07
2.7929327e-07
2.5805396e-07
2.377881e-07
2.1829451e-07
1.9980361e-07
1.8256633e-07
1.6563068e-07
1.492417e-07
1.3394147e-07
1.1923467e-07
1.0476312e-07
9.1686588e-08
7.9445519e-08
6.7859494e-08
5.7096525e-08
4.6789826e-08
3.6831304e-08
2.7967367e-08
1.9481058e-08
1.1747384e-08
7.8501688e-09
4.4708998e-09
-1.3393425e-09
-8.4959097e-09
-1.646919e-08
-2.4812991e-08
-3.3743564e-08
-4.2699264e-08
-5.2058667e-08
-6.152961e-08
-7.0898556e-08
-8.0134132e-08
-8.9463274e-08
-9.8763157e-08
-1.0791898e-07
-1.1699986e-07
-1.2620755e-07
-1.3533922e-07
-1.4433876e-07
-1.5333023e-07
-1.6216497e-07
-1.7122889e-07
-1.7971667e-07
-1.8789243e-07
-1.9589645e-07
-2.0395044e-07
-2.1168202e-07
-2.191352e-07
-2.2635765e-07
-2.3348401e-07
-2.403462e-07
-2.4683648e-07
-2.5297628e-07
-2.587693e-07
-2.6469247e-07
-2.7017099e-07
-2.7525846e-07
-2.8000647e-07
-2.8452912e-07
-2.887714e-07
-2.9268071e-07
-2.9608998e-07
-2.992121e-07
-3.0210141e-07
-3.0459949e-07
-3.0665685e-07
-3.0839168e-07
-3.09743e-07
-3.1097418e-07
-3.117805e-07
-3.1213142e-07
-3.1217961e-07
-3.118565e-07
-3.1103939e-07
-3.1006139e-07
-3.0882962e-07
-3.0742356e-07
-3.0573177e-07
-3.0368891e-07
-3.0175185e-07
-2.9913149e-07
-2.9627782e-07
-2.9319215e-07
-2.8975638e-07
-2.861834e-07
-2.8243065e-07
-2.7848834e-07
-2.7441357e-07
-2.7018359e-07
-2.6590137e-07
-2.6139394e-07