/*--------------------------------*- C++ -*----------------------------------*\
| =========                 |                                                 |
| \\      /  F ield         | OpenFOAM: The Open Source CFD Toolbox           |
|  \\    /   O peration     | Version:  2406                                  |
|   \\  /    A nd           | Website:  www.openfoam.com                      |
|    \\/     M anipulation  |                                                 |
\*---------------------------------------------------------------------------*/
FoamFile
{
    version     2.0;
    format      ascii;
    arch        "LSB;label=32;scalar=64";
    class       volVectorField;
    location    "100";
    object      moment;
}
// * * * * * * * * * * * * * * * * * * * * * * * * * * * * * * * * * * * * * //

dimensions      [1 2 -2 0 0 0 0];

internalField   uniform (0 0 0);

boundaryField
{
    inlet
    {
        type            calculated;
        value           uniform (0 0 0);
    }
    topWall
    {
        type            symmetry;
    }
    jet
    {
        type            calculated;
        value           uniform (0 0 0);
    }
    outlet
    {
        type            calculated;
        value           uniform (0 0 0);
    }
    bottomWall
    {
        type            calculated;
        value           uniform (0 0 0);
    }
    hump
    {
        type            calculated;
        value           nonuniform List<vector> 
320
(
(0.0030325233 0.00031629122 -0.00015736969)
(0.0031108493 0.00048971182 -0.00049234213)
(0.0031827455 0.0006792658 -0.0008590447)
(0.0032433328 0.00088595111 -0.0012580864)
(0.0032954659 0.0011015926 -0.0016914976)
(0.0033442871 0.0013143859 -0.0021629451)
(0.0033900553 0.0015214995 -0.0026746149)
(0.0034382158 0.001721138 -0.0032325089)
(0.0034938125 0.0019063458 -0.0038425829)
(0.0035594753 0.0020778277 -0.0045112636)
(0.0036348329 0.0022371985 -0.0052429409)
(0.0037228052 0.0023731885 -0.0060395537)
(0.0038208741 0.0024794185 -0.0068958851)
(0.0039132674 0.00255666 -0.0077874319)
(0.0039906129 0.0025841613 -0.0086756479)
(0.0040233804 0.002548355 -0.0094785872)
(0.0039845675 0.0024539112 -0.010113739)
(0.0038555999 0.0022010409 -0.010393546)
(0.0036336727 0.0019627992 -0.010419924)
(0.0032701646 0.0017236231 -0.010011964)
(0.0027760129 0.0014468545 -0.0090749108)
(0.0021614116 0.0011500775 -0.0075745401)
(0.0014288785 0.00084916467 -0.0054589212)
(0.00056070427 0.00053951508 -0.0025830731)
(-0.00060588212 0.00014148559 0.0018276296)
(-0.0017963076 -0.00022001 0.0068101105)
(-0.0030488276 -0.00055139742 0.012555318)
(-0.0044045738 -0.00085771309 0.019301916)
(-0.005758986 -0.0011191207 0.026664941)
(-0.0071461434 -0.0013438964 0.034838374)
(-0.0085075245 -0.0015312131 0.043594631)
(-0.0098733554 -0.0016894942 0.053113166)
(-0.01124563 -0.0018180143 0.063439735)
(-0.01260817 -0.0019174663 0.074525604)
(-0.013968989 -0.0019895821 0.086449941)
(-0.015312366 -0.0020404294 0.09916615)
(-0.013098483 -0.0016380116 0.088300109)
(-0.013123048 -0.0015356909 0.091505228)
(-0.013045805 -0.0014307446 0.093886968)
(-0.012921883 -0.0013188996 0.095764478)
(-0.012731326 -0.0012085568 0.096985294)
(-0.012492839 -0.0010992216 0.097655194)
(-0.012230611 -0.00098778735 0.09793444)
(-0.011916501 -0.00088732217 0.097624566)
(-0.0115931 -0.00078633525 0.097026378)
(-0.011250696 -0.00069022993 0.096076524)
(-0.010884484 -0.00060633103 0.094751725)
(-0.010522928 -0.00051875926 0.093258455)
(-0.010153951 -0.00043610355 0.091522505)
(-0.009774104 -0.00037089672 0.089549859)
(-0.0094089814 -0.0003060731 0.087537726)
(-0.0091017291 -0.00023825614 0.08590108)
(-0.0085861861 -0.00017490531 0.082147344)
(-0.0083362426 -0.00012709045 0.080804031)
(-0.0079695996 -8.1710228e-05 0.078220898)
(-0.0076318265 -4.0825824e-05 0.075799351)
(-0.0073055356 -3.5492278e-06 0.073381163)
(-0.0069906345 3.0438718e-05 0.070974589)
(-0.0066877626 6.1638213e-05 0.068594324)
(-0.0063969332 9.0208609e-05 0.066249187)
(-0.0061180171 0.00011501138 0.0639493)
(-0.0058513889 0.00013536613 0.061708412)
(-0.0055966132 0.00015246811 0.059526477)
(-0.005353936 0.00016915315 0.05740602)
(-0.0051224836 0.00018605813 0.055342679)
(-0.0049021677 0.00020165895 0.053345529)
(-0.0046923469 0.00021396796 0.05141829)
(-0.0044926752 0.00022298128 0.049562347)
(-0.0043029571 0.00022994541 0.047777195)
(-0.004122468 0.00023679056 0.046054282)
(-0.0039505813 0.00024409276 0.044389136)
(-0.0037870196 0.00025165296 0.042782834)
(-0.0036313984 0.0002583948 0.041237135)
(-0.0034832226 0.00026379219 0.039750805)
(-0.0033422245 0.00026771186 0.038323952)
(-0.003207723 0.00027052266 0.036950327)
(-0.0030797299 0.0002725262 0.035631717)
(-0.0029575334 0.00027375814 0.034361866)
(-0.0028409553 0.0002745087 0.033139936)
(-0.0027296954 0.00027466654 0.031964487)
(-0.0026233917 0.00027430863 0.030832696)
(-0.0025218243 0.00027365515 0.029742926)
(-0.0024245195 0.00027247017 0.028691461)
(-0.0023316208 0.0002710099 0.027680707)
(-0.0022425207 0.00026919657 0.026704679)
(-0.0021572542 0.00026702229 0.025764911)
(-0.0020756868 0.00026461135 0.024860479)
(-0.0019972824 0.00026228325 0.023984947)
(-0.0019220915 0.00025986822 0.023140194)
(-0.0018497742 0.00025785372 0.022321615)
(-0.001780538 0.00025560215 0.021534064)
(-0.001713882 0.00025351886 0.020771006)
(-0.0016497672 0.00025129349 0.020033309)
(-0.0015883346 0.00024903502 0.019323051)
(-0.0015293499 0.00024660839 0.018638163)
(-0.0014726873 0.00024370102 0.017978309)
(-0.0014179257 0.00024052607 0.017338103)
(-0.0013656146 0.00023695482 0.016725206)
(-0.001315123 0.00023312889 0.016131691)
(-0.0012668666 0.00022897767 0.015563354)
(-0.0012201184 0.00022483637 0.015010489)
(-0.0011754162 0.00022035376 0.014481082)
(-0.0011321874 0.00021564224 0.013967847)
(-0.0010907814 0.00021107707 0.013474619)
(-0.0010510123 0.0002063928 0.012999908)
(-0.0010128531 0.00020237655 0.012541745)
(-0.00097549771 0.00019898367 0.012090086)
(-0.00093940606 0.00019599404 0.011651537)
(-0.00090477853 0.00019342329 0.011228834)
(-0.00087115423 0.00019138816 0.010815927)
(-0.00083887466 0.00018937342 0.010418592)
(-0.00080763329 0.00018760879 0.010032473)
(-0.00077750796 0.00018592617 0.0096591043)
(-0.0007485251 0.00018426777 0.0092990906)
(-0.00072042126 0.00018275707 0.0089488379)
(-0.00069340672 0.00018114347 0.0086117689)
(-0.00066739973 0.00017944541 0.0082868796)
(-0.00065947237 0.00018298869 0.0081849141)
(-0.00064184277 0.00018316453 0.0079636013)
(-0.00055382242 0.00016160772 0.0068706037)
(-0.00077860835 0.00028798187 0.0096068235)
(-0.00078154011 0.00030140614 0.0096292695)
(-0.00078442037 0.00031465663 0.0096518183)
(-0.00078763267 0.0003273665 0.0096803737)
(-0.00078962357 0.00034201926 0.0096888085)
(-0.00079181801 0.00035674788 0.0097001815)
(-0.00079320104 0.00037250745 0.0096989164)
(-0.00079446035 0.00038841931 0.009696099)
(-0.00079677633 0.00040617703 0.0097037189)
(-0.00079357596 0.00042090494 0.0096450237)
(-0.00079574984 0.00043894581 0.0096510297)
(-0.00079587611 0.00045530407 0.0096339379)
(-0.00079632848 0.00047125849 0.0096225523)
(-0.00079714903 0.00048633684 0.0096184789)
(-0.00079864325 0.00050039012 0.0096261391)
(-0.00079953175 0.00051436585 0.0096263387)
(-0.00080121499 0.00052897564 0.0096363607)
(-0.00080320298 0.00054115713 0.0096561896)
(-0.00080550859 0.00055368185 0.009680081)
(-0.0008070384 0.0005672758 0.0096918047)
(-0.00080990317 0.00057890173 0.0097262173)
(-0.00081222881 0.00059109736 0.0097527144)
(-0.00081492036 0.00060374678 0.0097837937)
(-0.00081778939 0.00061502198 0.0098206977)
(-0.00082101701 0.00062646664 0.0098626977)
(-0.00082418098 0.00063822479 0.0099038036)
(-0.00082779032 0.00064899267 0.0099535821)
(-0.00083168866 0.00065989048 0.010007654)
(-0.0008382537 0.00067255595 0.010095259)
(-0.00083823734 0.00067814274 0.010107719)
(-0.00084471056 0.00069110956 0.010194786)
(-0.00082363772 0.00067816358 0.0099556395)
(-0.00088313623 0.00073133143 0.010692702)
(-0.00085964421 0.00071805936 0.01042235)
(-0.00086758492 0.00072715878 0.010540021)
(-0.00087455261 0.00073562784 0.010646309)
(-0.00088339616 0.00074577055 0.010776099)
(-0.00088852817 0.00075238496 0.010862114)
(-0.000895397 0.00076099741 0.010969063)
(-0.0009031734 0.00076888671 0.011090668)
(-0.00091056706 0.00077710147 0.011207186)
(-0.0009180692 0.0007855212 0.01132565)
(-0.00092657427 0.00079292424 0.011460679)
(-0.00093566325 0.00079958887 0.011605972)
(-0.0009445537 0.00080694677 0.011748145)
(-0.00095492844 0.00081215453 0.011915606)
(-0.00095684759 0.00080955007 0.011979054)
(-0.00097821904 0.00082401909 0.012285963)
(-0.00099676047 0.00083478335 0.012561399)
(-0.00099949722 0.00083323985 0.012636987)
(-0.0010099023 0.00083975312 0.012807299)
(-0.001021616 0.00084493318 0.012999167)
(-0.0010281957 0.00085089766 0.013118397)
(-0.0010323094 0.0008510682 0.013212692)
(-0.0010593939 0.00087366602 0.013597043)
(-0.0010564699 0.00086879724 0.013601763)
(-0.0010746379 0.00088387966 0.013874759)
(-0.001091935 0.00089675403 0.014140727)
(-0.0010946522 0.00089625816 0.014221008)
(-0.0011070485 0.00090207292 0.014430108)
(-0.0011194291 0.00090789616 0.014640134)
(-0.0011321059 0.00091343179 0.014855982)
(-0.0011454497 0.00091867439 0.015082985)
(-0.0011680358 0.00092763739 0.015438618)
(-0.0011798214 0.00093011137 0.015650107)
(-0.0011883039 0.00092819039 0.015821011)
(-0.0012021294 0.00092829564 0.01606675)
(-0.0012150711 0.00092883721 0.01630017)
(-0.0012375409 0.00093742825 0.016661974)
(-0.0012544005 0.00093928966 0.016953282)
(-0.001270531 0.00094216314 0.017234125)
(-0.0012868096 0.00094519161 0.017518351)
(-0.001304284 0.00094782664 0.017821946)
(-0.0013191914 0.00095146848 0.018088393)
(-0.0013366608 0.00095285549 0.018396408)
(-0.0013528033 0.00095500392 0.018685597)
(-0.0013709017 0.00095765256 0.019004395)
(-0.0013890238 0.00095942702 0.019326203)
(-0.001407392 0.00096021231 0.019654378)
(-0.0014278522 0.00096038662 0.020015745)
(-0.0014455764 0.00096026433 0.020338734)
(-0.0014650582 0.00095974334 0.020689767)
(-0.0014854151 0.00095892786 0.021055824)
(-0.0015066032 0.00095706031 0.021437122)
(-0.0015271323 0.00095524526 0.021810379)
(-0.0015485043 0.00095320401 0.022198271)
(-0.0015700362 0.00095086118 0.022590753)
(-0.0015928537 0.00094779496 0.023005149)
(-0.0016127815 0.00094405211 0.023378713)
(-0.0016359142 0.00093943243 0.023803155)
(-0.0016589089 0.00093591426 0.0242266)
(-0.0016817217 0.00093113033 0.0246505)
(-0.0017061067 0.00092600024 0.025100646)
(-0.0017292452 0.0009196469 0.025535068)
(-0.00175321 0.0009126557 0.025984697)
(-0.0017761349 0.00090706405 0.02641951)
(-0.0018020649 0.0008986672 0.026904715)
(-0.0018267655 0.00089101009 0.027372871)
(-0.0018526637 0.00088334618 0.027861828)
(-0.0018770525 0.00087391253 0.028331243)
(-0.0019014779 0.00086448985 0.028803514)
(-0.0019286926 0.00085420419 0.029322007)
(-0.0019539974 0.00084484668 0.029812842)
(-0.0019811813 0.00083342594 0.030336855)
(-0.0020068364 0.00082343439 0.030838775)
(-0.002032182 0.00081097802 0.031339975)
(-0.0020590247 0.00080094899 0.031865829)
(-0.0020858016 0.00078880898 0.032394741)
(-0.0021119126 0.00077872523 0.03291481)
(-0.0021390297 0.00076677544 0.033454737)
(-0.0021635458 0.00075617553 0.033955579)
(-0.0021911665 0.00074429835 0.034509337)
(-0.0022179622 0.00073184637 0.035053346)
(-0.0022455089 0.00072034765 0.03561202)
(-0.0022711978 0.0007075667 0.036144688)
(-0.0022987457 0.00069388066 0.036710768)
(-0.0023256137 0.0006828393 0.037267984)
(-0.0023528299 0.00067095259 0.03783457)
(-0.0023795787 0.00065956427 0.038396773)
(-0.0024057022 0.00064821386 0.038952188)
(-0.0028045136 0.00073247718 0.045578387)
(-0.0027922141 0.00070565891 0.045557525)
(-0.0027797551 0.00067909964 0.045530674)
(-0.0027665291 0.00065453778 0.045487217)
(-0.0027535723 0.00063061084 0.045444796)
(-0.0027401454 0.00060841084 0.045390885)
(-0.0027259635 0.00058653614 0.04532117)
(-0.0027119516 0.00056685253 0.045250513)
(-0.002697896 0.00054762991 0.045175978)
(-0.0026831376 0.00053138486 0.045085808)
(-0.0026681868 0.00051529976 0.044989382)
(-0.0026533695 0.0004995293 0.044892193)
(-0.0026386516 0.0004848872 0.044793539)
(-0.0026237025 0.00047019267 0.04468813)
(-0.0026085274 0.00045682306 0.044575727)
(-0.0025935013 0.00044388474 0.044462998)
(-0.0025787071 0.00043046646 0.04435163)
(-0.0025637113 0.00041808891 0.044233879)
(-0.0025483899 0.00040683395 0.044107597)
(-0.0025332849 0.00039627683 0.043982288)
(-0.0025184782 0.00038484239 0.043859737)
(-0.0025032666 0.00037553537 0.043727198)
(-0.0024879554 0.00036650116 0.043590322)
(-0.0024731903 0.00035666357 0.04346065)
(-0.0024581795 0.00034839512 0.043323966)
(-0.0024429502 0.00034072138 0.043180899)
(-0.0024281956 0.00033158169 0.043044009)
(-0.0024133906 0.00032348233 0.042903721)
(-0.0023986776 0.00031525021 0.042762741)
(-0.0023840974 0.0003063452 0.042621895)
(-0.0023695803 0.00029762461 0.042479868)
(-0.0023551325 0.00028911611 0.042336803)
(-0.0023408809 0.00028055657 0.042195052)
(-0.0023265229 0.0002723636 0.042049157)
(-0.0023119643 0.00026525907 0.041897352)
(-0.0022979774 0.0002564904 0.041753899)
(-0.0022838955 0.00024854826 0.041606551)
(-0.0022699505 0.00023935494 0.041459696)
(-0.0022561011 0.00023011585 0.041312524)
(-0.0022424738 0.00021955095 0.041167464)
(-0.002228692 0.00021095125 0.041017449)
(-0.0022152947 0.00019951078 0.040872672)
(-0.0022015884 0.00019057747 0.040720115)
(-0.0021884403 0.00017885962 0.040576073)
(-0.0021748113 0.00016885721 0.040421135)
(-0.0021616459 0.00015781998 0.040272959)
(-0.0021483714 0.00014693171 0.040120892)
(-0.0021352664 0.00013574833 0.039970165)
(-0.0021221309 0.00012429042 0.039817066)
(-0.0021088181 0.00011333671 0.039658827)
(-0.0020957206 0.00010274558 0.039502852)
(-0.0020827431 9.2889999e-05 0.039347387)
(-0.002069658 8.2268222e-05 0.039188185)
(-0.002056664 7.1854596e-05 0.039029)
(-0.0020436511 6.2563942e-05 0.038867762)
(-0.0020306196 5.4266654e-05 0.038704496)
(-0.0020177855 4.5310033e-05 0.038543367)
(-0.0020048451 3.8066384e-05 0.038378576)
(-0.0019920385 3.0018299e-05 0.038214759)
(-0.0019791197 2.4979357e-05 0.038047184)
(-0.0019664512 1.9993836e-05 0.037882866)
(-0.0019537224 1.7428672e-05 0.037715836)
(-0.0019410203 1.5879726e-05 0.037547795)
(-0.0019285869 1.6894077e-05 0.037383441)
(-0.0019160153 1.6183742e-05 0.037214947)
(-0.0019036016 1.7131352e-05 0.037048046)
(-0.0018912624 1.7488854e-05 0.03688116)
(-0.0018790112 1.7302623e-05 0.036714569)
(-0.0018668466 1.5707583e-05 0.036548274)
(-0.001854721 1.6701492e-05 0.036381348)
(-0.0018427143 1.6482173e-05 0.036215387)
(-0.0018307489 1.7242964e-05 0.036048888)
(-0.0018188917 1.8038649e-05 0.035883184)
(-0.0018069613 2.1077502e-05 0.035714712)
(-0.0017953333 2.2826697e-05 0.035550921)
(-0.0017836131 2.4375416e-05 0.035384025)
(-0.0017720523 2.2302975e-05 0.035219028)
(-0.0017606087 1.9269287e-05 0.035055113)
(-0.0017702287 1.1921714e-05 0.035310491)
(-0.0017169153 4.5178427e-06 0.034308202)
)
;
    }
    defaultFaces
    {
        type            empty;
    }
}


// ************************************************************************* //
