/*--------------------------------*- C++ -*----------------------------------*\
| =========                 |                                                 |
| \\      /  F ield         | OpenFOAM: The Open Source CFD Toolbox           |
|  \\    /   O peration     | Version:  2406                                  |
|   \\  /    A nd           | Website:  www.openfoam.com                      |
|    \\/     M anipulation  |                                                 |
\*---------------------------------------------------------------------------*/
FoamFile
{
    version     2.0;
    format      ascii;
    arch        "LSB;label=32;scalar=64";
    class       surfaceScalarField;
    location    "100";
    object      phi;
}
// * * * * * * * * * * * * * * * * * * * * * * * * * * * * * * * * * * * * * //

dimensions      [0 3 -1 0 0 0 0];

oriented        oriented;

internalField   nonuniform List<scalar> 
137424
(
1.6331182e-08
7.4829658e-10
1.5552184e-08
7.6954276e-10
1.428053e-08
1.2205262e-09
1.3299132e-08
9.4961139e-10
1.2265911e-08
1.0343702e-09
1.1339863e-08
8.3654052e-10
1.0477983e-08
8.1659724e-10
9.699745e-09
7.0732151e-10
8.9881534e-09
6.5575963e-10
8.3436536e-09
5.7223598e-10
7.7555256e-09
5.0915084e-10
7.2197522e-09
4.6897705e-10
6.7299894e-09
3.845231e-10
6.2824863e-09
3.2095776e-10
5.8725427e-09
2.7796903e-10
5.4963754e-09
5.6624565e-11
5.1512395e-09
1.3699265e-10
4.8339355e-09
1.3348329e-10
4.5416866e-09
-2.4023008e-10
1.3783129e-10
4.2718278e-09
5.5726474e-08
3.3486771e-09
5.3078818e-08
3.4081404e-09
4.8743924e-08
5.4907776e-09
4.539665e-08
4.2559544e-09
4.1872055e-08
4.5656965e-09
3.8712136e-08
3.8823153e-09
3.5770616e-08
3.701494e-09
3.311418e-08
3.26867e-09
3.0684963e-08
3.00915e-09
2.8484611e-08
2.6767492e-09
2.6476611e-08
2.4125896e-09
2.4647305e-08
2.2082581e-09
2.2975072e-08
1.9191779e-09
2.1447116e-08
1.6823699e-09
2.0047413e-08
1.5212992e-09
1.8763045e-08
9.2519601e-10
1.758465e-08
1.0412001e-09
1.6501294e-08
9.6895013e-10
1.55035e-08
1.1044521e-10
8.5106388e-10
1.4582172e-08
1.070697e-07
8.3541762e-09
1.0199879e-07
8.4604726e-09
9.3682926e-08
1.3742115e-08
8.7254809e-08
1.0639407e-08
8.0485665e-08
1.1324314e-08
7.4414427e-08
9.8429156e-09
6.8761619e-08
9.2900463e-09
6.3655717e-08
8.2766001e-09
5.8985965e-08
7.5997753e-09
5.4755757e-08
6.8067028e-09
5.0895137e-08
6.1638717e-09
4.7377967e-08
5.6305938e-09
4.4162761e-08
4.9880781e-09
4.1224952e-08
4.4441799e-09
3.8533775e-08
4.0123014e-09
3.6064399e-08
2.9853301e-09
3.3798831e-08
3.0177901e-09
3.1716032e-08
2.7909775e-09
2.9797784e-08
1.3609255e-09
2.3939667e-09
2.8026606e-08
1.7325635e-07
1.6442589e-08
1.6507926e-07
1.6622604e-08
1.5165264e-07
2.7099003e-08
1.4125753e-07
2.0985327e-08
1.3031031e-07
2.2269555e-08
1.2048613e-07
1.9545728e-08
1.1133654e-07
1.837209e-08
1.0307004e-07
1.6428151e-08
9.5508446e-08
1.5066881e-08
8.8657691e-08
1.354173e-08
8.2405048e-08
1.2290882e-08
7.6708436e-08
1.12152e-08
7.1500841e-08
1.0031009e-08
6.6742556e-08
9.0019461e-09
6.2383839e-08
8.1728833e-09
5.8384494e-08
6.5237996e-09
5.4715377e-08
6.3578014e-09
5.1342385e-08
5.8558061e-09
4.8236003e-08
3.7828894e-09
4.9552104e-09
4.5367947e-08
2.5782991e-07
2.8430593e-08
2.4571193e-07
2.8711355e-08
2.257877e-07
4.6956418e-08
2.1033111e-07
3.6388334e-08
1.9405228e-07
3.8519242e-08
1.7943262e-07
3.4054548e-08
1.6581214e-07
3.191525e-08
1.535022e-07
2.8621752e-08
1.4223963e-07
2.623201e-08
1.3203409e-07
2.3627807e-08
1.2271875e-07
2.1476641e-08
1.1423139e-07
1.9585373e-08
1.064725e-07
1.7616376e-08
9.9383103e-08
1.5881713e-08
9.2889236e-08
1.4410868e-08
8.6931061e-08
1.2050736e-08
8.1465149e-08
1.1480951e-08
7.6440641e-08
1.0558162e-08
7.1813542e-08
7.7372997e-09
8.8926839e-09
6.7541763e-08
3.6512396e-07
4.5320028e-08
3.4804874e-07
4.5762985e-08
3.1993026e-07
7.5000197e-08
2.980643e-07
5.8194756e-08
2.750325e-07
6.1535499e-08
2.5432936e-07
5.4630199e-08
2.35033e-07
5.1130314e-08
2.1758615e-07
4.59292e-08
2.0161969e-07
4.2079735e-08
1.8714868e-07
3.7958463e-08
1.7393849e-07
3.4535462e-08
1.6190175e-07
3.148171e-08
1.5089794e-07
2.8422491e-08
1.4084369e-07
2.5693489e-08
1.316344e-07
2.3366837e-08
1.2318531e-07
1.9991664e-08
1.1543479e-07
1.8835525e-08
1.0831066e-07
1.7296263e-08
1.0175045e-07
1.3577358e-08
1.4516393e-08
9.5694596e-08
5.0043294e-07
6.8309338e-08
4.7716739e-07
6.8987077e-08
4.3878567e-07
1.1331074e-07
4.0885481e-07
8.8060912e-08
3.7732326e-07
9.3017308e-08
3.4894912e-07
8.2890011e-08
3.2248957e-07
7.7495691e-08
2.9855433e-07
6.9726546e-08
2.7664329e-07
6.3868889e-08
2.567794e-07
5.7680188e-08
2.3864376e-07
5.25175e-08
2.2211785e-07
4.7861573e-08
2.0700974e-07
4.3324188e-08
1.9320545e-07
3.9247842e-08
1.8056188e-07
3.5687847e-08
1.689628e-07
3.112296e-08
1.5832358e-07
2.9067872e-08
1.4854499e-07
2.6672728e-08
1.3954122e-07
2.1880101e-08
2.2366712e-08
1.3123061e-07
6.7021917e-07
9.8858723e-08
6.3927226e-07
9.9899627e-08
5.8811186e-07
1.6438961e-07
5.4808779e-07
1.2801259e-07
5.0591496e-07
1.3515804e-07
4.6791738e-07
1.2075126e-07
4.3246264e-07
1.1285187e-07
4.0037175e-07
1.0164838e-07
3.7098405e-07
9.3107645e-08
3.4433386e-07
8.4159925e-08
3.1999836e-07
7.6670487e-08
2.9782081e-07
6.9863887e-08
2.775452e-07
6.3362097e-08
2.5901942e-07
5.747989e-08
2.4205223e-07
5.2333339e-08
2.2648793e-07
4.6118448e-08
2.1221295e-07
4.2866227e-08
1.9909391e-07
3.930986e-08
1.8701558e-07
3.3179527e-08
3.2935777e-08
1.7586861e-07
8.8236375e-07
1.3870388e-07
8.4193833e-07
1.4026931e-07
7.7494984e-07
2.3129958e-07
7.2235337e-07
1.8053044e-07
6.6691976e-07
1.9051875e-07
6.1690239e-07
1.7064624e-07
5.7020005e-07
1.5943951e-07
5.2790022e-07
1.4378264e-07
4.8914688e-07
1.3171027e-07
4.5399072e-07
1.1914462e-07
4.2188164e-07
1.0859557e-07
3.9261633e-07
9.8948824e-08
3.658595e-07
8.9871664e-08
3.4141174e-07
8.1626562e-08
3.1902196e-07
7.4324022e-08
2.9848519e-07
6.6136633e-08
2.7965156e-07
6.121273e-08
2.6234485e-07
5.6118887e-08
2.4641287e-07
4.8364764e-08
4.7035739e-08
2.3171163e-07
1.1464703e-06
1.8994504e-07
1.094407e-06
1.9228525e-07
1.007904e-06
3.1771142e-07
9.3971164e-07
2.486346e-07
8.6782003e-07
2.6235882e-07
8.0284731e-07
2.3546952e-07
7.4213298e-07
2.2003407e-07
6.8709943e-07
1.9861097e-07
6.3665483e-07
1.8196951e-07
5.9087314e-07
1.6471881e-07
5.4904943e-07
1.5019891e-07
5.1092418e-07
1.368573e-07
4.7606448e-07
1.2444524e-07
4.4421261e-07
1.1312194e-07
4.1504348e-07
1.0308924e-07
3.8829086e-07
9.2242937e-08
3.6375957e-07
8.5169581e-08
3.4121976e-07
7.8061904e-08
3.20473e-07
6.8244509e-08
6.5432534e-08
3.013322e-07
1.4742326e-06
2.5506622e-07
1.4079447e-06
2.585013e-07
1.297483e-06
4.2808369e-07
1.2100154e-06
3.3600678e-07
1.1177716e-06
3.5450465e-07
1.034254e-06
3.1885075e-07
9.561405e-07
2.9800757e-07
8.8527337e-07
2.6928047e-07
8.2027801e-07
2.4677832e-07
7.6126141e-07
2.2352975e-07
7.0733147e-07
2.0390917e-07
6.5816147e-07
1.8580564e-07
6.1319888e-07
1.6911202e-07
5.7211458e-07
1.5384492e-07
5.3449232e-07
1.4022183e-07
4.9999006e-07
1.2615293e-07
4.6835629e-07
1.162214e-07
4.3929427e-07
1.0650971e-07
4.1254789e-07
9.4157158e-08
8.9339871e-08
3.8787652e-07
1.8798795e-06
3.3705468e-07
1.7962777e-06
3.4204045e-07
1.6565137e-06
5.6774347e-07
1.5453029e-06
4.4710998e-07
1.4279736e-06
4.7176004e-07
1.3215297e-06
4.2512672e-07
1.2218734e-06
3.9751795e-07
1.131372e-06
3.5953335e-07
1.0483144e-06
3.2960654e-07
9.7285391e-07
2.9873788e-07
9.0387384e-07
2.7262342e-07
8.4096775e-07
2.4844563e-07
7.8343745e-07
2.2629804e-07
7.3086675e-07
2.0598328e-07
6.8272772e-07
1.8785835e-07
6.3858486e-07
1.6955053e-07
5.9811689e-07
1.5599773e-07
5.6094383e-07
1.4294814e-07
5.2673793e-07
1.2736905e-07
1.1995014e-07
4.9519217e-07
2.3807127e-06
4.394271e-07
2.276118e-06
4.4654473e-07
2.1006445e-06
7.43112e-07
1.9602761e-06
5.8736221e-07
1.8121193e-06
6.1979091e-07
1.6774104e-06
5.5967801e-07
1.5511502e-06
5.2360771e-07
1.4363609e-06
4.7408478e-07
1.3309339e-06
4.3480587e-07
1.2350873e-06
3.9433551e-07
1.1474365e-06
3.6001012e-07
1.0674815e-06
3.281312e-07
9.9434769e-07
2.9907646e-07
9.2751342e-07
2.7238103e-07
8.6631451e-07
2.4846328e-07
8.1020069e-07
2.2497822e-07
7.5876457e-07
2.0673448e-07
7.1152299e-07
1.8943889e-07
6.6805934e-07
1.6988373e-07
1.5907718e-07
6.2798451e-07
2.9977565e-06
5.6638611e-07
2.8678008e-06
5.7641938e-07
2.6489556e-06
9.6183603e-07
2.472882e-06
7.6330445e-07
2.2869463e-06
8.0562643e-07
2.1174785e-06
7.2895299e-07
1.9584421e-06
6.8246628e-07
1.8136743e-06
6.1855174e-07
1.6806008e-06
5.6759719e-07
1.5595298e-06
5.1509967e-07
1.4487588e-06
4.7046038e-07
1.3476798e-06
4.288858e-07
1.2552056e-06
3.9113629e-07
1.1706874e-06
3.563746e-07
1.0932958e-06
3.2523488e-07
1.02234e-06
2.9506548e-07
9.573068e-07
2.7093465e-07
8.9758549e-07
2.4826092e-07
8.4264961e-07
2.2365844e-07
2.085595e-07
7.9200861e-07
3.7565424e-06
7.2285874e-07
3.5960548e-06
7.3679498e-07
3.3247001e-06
1.2330659e-06
3.1050194e-06
9.82844e-07
2.8729059e-06
1.037582e-06
2.6607938e-06
9.408793e-07
2.4614652e-06
8.8158704e-07
2.2797698e-06
7.9996281e-07
2.1125919e-06
7.344962e-07
1.9603634e-06
6.6702906e-07
1.8210088e-06
6.0949888e-07
1.6937963e-06
5.5577132e-07
1.5773838e-06
5.0712256e-07
1.4709709e-06
4.6226262e-07
1.3735281e-06
4.219577e-07
1.284194e-06
3.8359077e-07
1.2023256e-06
3.5196543e-07
1.1271547e-06
3.2251339e-07
1.0580197e-06
2.916802e-07
2.711047e-07
9.9430481e-07
4.6880561e-06
9.1469891e-07
4.4909329e-06
9.3381525e-07
4.1562021e-06
1.5676538e-06
3.8833977e-06
1.2554883e-06
3.5949791e-06
1.3258693e-06
3.3306646e-06
1.2049692e-06
3.0819057e-06
1.130129e-06
2.8548077e-06
1.0266976e-06
2.645631e-06
9.4332685e-07
2.4549771e-06
8.5731035e-07
2.2803351e-06
7.8375431e-07
2.1208343e-06
7.1487865e-07
1.9748292e-06
6.5262896e-07
1.8413392e-06
5.9511698e-07
1.7190946e-06
5.4344087e-07
1.6070267e-06
4.9463681e-07
1.5043346e-06
4.5365502e-07
1.4100565e-06
4.1569369e-07
1.3233643e-06
3.7699564e-07
3.4955607e-07
1.2434881e-06
5.8298786e-06
1.1487394e-06
5.5889372e-06
1.1746187e-06
5.177945e-06
1.9784954e-06
4.8405799e-06
1.5926817e-06
4.48367e-06
1.6825839e-06
4.1555874e-06
1.5328293e-06
3.8463058e-06
1.4391577e-06
3.5634832e-06
1.3091781e-06
3.3026686e-06
1.2038034e-06
3.0646942e-06
1.0949228e-06
2.8465458e-06
1.0015221e-06
2.6471992e-06
9.1383126e-07
2.4646509e-06
8.3466442e-07
2.2977076e-06
7.6142592e-07
2.1448125e-06
6.9546841e-07
2.0046473e-06
6.3384277e-07
1.8762187e-06
5.8107472e-07
1.758328e-06
5.324681e-07
1.649943e-06
4.8407165e-07
4.479651e-07
1.5501042e-06
7.2275618e-06
1.4330487e-06
6.9343754e-06
1.4676758e-06
6.4318885e-06
2.4808123e-06
6.0162471e-06
2.0081281e-06
5.5762129e-06
2.1224495e-06
5.1703934e-06
1.938384e-06
4.7871459e-06
1.8221409e-06
4.436045e-06
1.6598405e-06
4.1118368e-06
1.5275887e-06
3.8156662e-06
1.3906413e-06
3.543942e-06
1.2727801e-06
3.2954759e-06
1.1618218e-06
3.0678437e-06
1.0616963e-06
2.8596043e-06
9.6889515e-07
2.6688601e-06
8.8528174e-07
2.4939923e-06
8.0750062e-07
2.3337761e-06
7.4008302e-07
2.1867226e-06
6.7818505e-07
2.0515506e-06
6.1759895e-07
5.7070535e-07
1.9270673e-06
8.9362835e-06
1.7770041e-06
8.5809965e-06
1.8227942e-06
7.9690625e-06
3.0925645e-06
7.4587323e-06
2.5182501e-06
6.9180407e-06
2.6629017e-06
6.4176447e-06
2.4385122e-06
5.9441664e-06
2.2953119e-06
5.5095409e-06
2.0940569e-06
5.1076203e-06
1.9290973e-06
4.7399692e-06
1.7578576e-06
4.4023437e-06
1.6099494e-06
4.0933849e-06
1.4703052e-06
3.8101796e-06
1.3442856e-06
3.5510005e-06
1.2273116e-06
3.3135474e-06
1.121687e-06
3.0958436e-06
1.0240553e-06
2.8963854e-06
9.3832924e-07
2.7133307e-06
8.5987878e-07
2.5450954e-06
7.8426671e-07
7.2385013e-07
2.3901995e-06
1.1022838e-05
2.1916108e-06
1.059396e-05
2.2515106e-06
9.851492e-06
3.8348294e-06
9.226878e-06
3.1426269e-06
8.5645679e-06
3.3249986e-06
7.9493345e-06
3.0534308e-06
7.3659807e-06
2.8783438e-06
6.8293424e-06
2.6301675e-06
6.3322905e-06
2.4256334e-06
5.8769509e-06
2.2126498e-06
5.4583494e-06
2.0279893e-06
5.07496e-06
1.853121e-06
4.7233053e-06
1.6952177e-06
4.4013321e-06
1.5483534e-06
4.1062686e-06
1.4156148e-06
3.8357134e-06
1.2931698e-06
3.5878295e-06
1.1847576e-06
3.3603467e-06
1.0857353e-06
3.1513131e-06
9.9132094e-07
9.1413805e-07
2.9588963e-06
1.3568025e-05
2.689592e-06
1.3052207e-05
2.7671228e-06
1.2154522e-05
4.7322938e-06
1.1392284e-05
3.9046125e-06
1.0583353e-05
4.1336376e-06
9.8289549e-06
3.8075042e-06
9.1120421e-06
3.5948843e-06
8.4510066e-06
3.2907112e-06
7.8376626e-06
3.0384799e-06
7.2748813e-06
2.7749059e-06
6.7568847e-06
2.545436e-06
6.2819956e-06
2.3274394e-06
5.846094e-06
2.1303771e-06
5.4467602e-06
1.9467668e-06
5.0806749e-06
1.7804391e-06
4.7449363e-06
1.6275308e-06
4.437312e-06
1.4909182e-06
4.1550144e-06
1.3663814e-06
3.8956474e-06
1.2488181e-06
1.1507047e-06
3.6569461e-06
1.6669521e-05
3.2857787e-06
1.6051304e-05
3.3851411e-06
1.4969618e-05
5.8137346e-06
1.4042022e-05
4.83192e-06
1.3056723e-05
5.1186706e-06
1.213401e-05
4.7298405e-06
1.125504e-05
4.4734633e-06
1.0442551e-05
4.1025659e-06
9.6872448e-06
3.7931587e-06
8.9929779e-06
3.4685104e-06
8.3531033e-06
3.1846337e-06
7.7658283e-06
2.9140241e-06
7.2263096e-06
2.6690255e-06
6.7317237e-06
2.4402268e-06
6.2781216e-06
2.2326586e-06
5.8620168e-06
2.0419139e-06
5.4807113e-06
1.8704675e-06
5.1307947e-06
1.7143212e-06
4.8093371e-06
1.5678875e-06
1.4439032e-06
4.5135434e-06
2.044531e-05
3.9972144e-06
1.9706858e-05
4.1233448e-06
1.8407743e-05
7.1125811e-06
1.728192e-05
5.9574372e-06
1.6084942e-05
6.3152952e-06
1.4959067e-05
5.8553217e-06
1.3883815e-05
5.5482645e-06
1.2887227e-05
5.0985675e-06
1.1958868e-05
4.7209145e-06
1.1103887e-05
4.3228611e-06
1.0314721e-05
3.9731401e-06
9.5895253e-06
3.6385325e-06
8.9226557e-06
3.3350024e-06
8.3108532e-06
3.0509236e-06
7.7494537e-06
2.7925356e-06
7.234293e-06
2.5554129e-06
6.7621294e-06
2.3408669e-06
6.3288073e-06
2.1456324e-06
5.9307585e-06
1.963677e-06
1.8075131e-06
5.5645384e-06
2.5037798e-05
4.8436119e-06
2.4158609e-05
5.0022903e-06
2.260341e-05
8.6674852e-06
2.124051e-05
7.3199876e-06
1.9790057e-05
7.765417e-06
1.8419456e-05
7.2254718e-06
1.7106908e-05
6.8603368e-06
1.5886904e-05
6.3178111e-06
1.4747895e-05
5.8591624e-06
1.369672e-05
5.3732367e-06
1.2724878e-05
4.9441668e-06
1.1830575e-05
4.5320047e-06
1.1007296e-05
4.1572335e-06
1.0251329e-05
3.8055323e-06
9.5572062e-06
3.4849761e-06
8.919988e-06
3.1905668e-06
8.3358041e-06
2.9229316e-06
7.799612e-06
2.6794208e-06
7.3070843e-06
2.4533133e-06
2.2574531e-06
6.8539819e-06
3.0618717e-05
5.8474516e-06
2.9575319e-05
6.0453867e-06
2.7719552e-05
1.0522927e-05
2.6073791e-05
8.9653789e-06
2.4320526e-05
9.5182545e-06
2.2655748e-05
8.8897724e-06
2.1056863e-05
8.4586761e-06
1.9566186e-05
7.8077863e-06
1.8171143e-05
7.253479e-06
1.6880769e-05
6.6628511e-06
1.5685647e-05
6.138494e-06
1.458419e-05
5.6326381e-06
1.3568956e-05
5.1713913e-06
1.2635782e-05
4.737374e-06
1.1778318e-05
4.3406053e-06
1.0990743e-05
3.9761403e-06
1.0268471e-05
3.6430696e-06
9.6054084e-06
3.3400414e-06
8.9963329e-06
3.0596796e-06
2.814574e-06
8.4360341e-06
3.7394975e-05
7.0344831e-06
3.6160611e-05
7.2794519e-06
3.3953352e-05
1.272983e-05
3.1970948e-05
1.0947361e-05
2.9856807e-05
1.1631986e-05
2.7839172e-05
1.0906867e-05
2.5895451e-05
1.040182e-05
2.4077417e-05
9.6249089e-06
2.2371659e-05
8.9583154e-06
2.0790048e-05
8.2434977e-06
1.9322332e-05
7.6052276e-06
1.7967356e-05
6.9866172e-06
1.671673e-05
6.4207552e-06
1.556587e-05
5.8865947e-06
1.4507474e-05
5.3969576e-06
1.3534741e-05
4.9463943e-06
1.2642275e-05
4.532976e-06
1.1822753e-05
4.1566425e-06
1.1069901e-05
3.8090316e-06
3.5033016e-06
1.0377324e-05
4.5615607e-05
8.4337823e-06
4.4159911e-05
8.7347854e-06
4.1543211e-05
1.5346135e-05
3.9161207e-05
1.3328919e-05
3.6618079e-05
1.4174598e-05
3.4178151e-05
1.3346217e-05
3.1819986e-05
1.2759326e-05
2.9606759e-05
1.1837297e-05
2.7524534e-05
1.1039664e-05
2.5588826e-05
1.0178295e-05
2.3788716e-05
9.4043845e-06
2.21238e-05
8.6505427e-06
2.0584758e-05
7.9585023e-06
1.9166668e-05
7.303088e-06
1.7861225e-05
6.7001843e-06
1.6660555e-05
6.1446434e-06
1.5558372e-05
5.6325818e-06
1.4545917e-05
5.1661277e-06
1.3615693e-05
4.7359749e-06
4.3552501e-06
1.2759865e-05
5.5580031e-05
1.0078241e-05
5.3868702e-05
1.0445751e-05
5.0777048e-05
1.8437362e-05
4.7922044e-05
1.6183413e-05
4.4870308e-05
1.7225831e-05
4.1926179e-05
1.6289697e-05
3.9070969e-05
1.5613837e-05
3.638156e-05
1.4525616e-05
3.3843972e-05
1.3576137e-05
3.1478383e-05
1.2542725e-05
2.9273484e-05
1.1608102e-05
2.7230066e-05
1.0692763e-05
2.5337965e-05
9.8490842e-06
2.3592063e-05
9.0470194e-06
2.1983047e-05
8.3067195e-06
2.0501896e-05
7.6228098e-06
1.914136e-05
6.9900287e-06
1.7891023e-05
6.4129179e-06
1.6741986e-05
5.8807673e-06
5.4078898e-06
1.5684659e-05
6.7647787e-05
1.2004492e-05
6.5642286e-05
1.2450813e-05
6.2002162e-05
2.2077008e-05
5.8588969e-05
1.959607e-05
5.4935915e-05
2.0878262e-05
5.1391279e-05
1.9833637e-05
4.7941291e-05
1.9063031e-05
4.4679261e-05
1.7786641e-05
4.1591865e-05
1.666248e-05
3.8705212e-05
1.5428284e-05
3.6008041e-05
1.4304126e-05
3.3502941e-05
1.3196676e-05
3.1179081e-05
1.2171384e-05
2.9031382e-05
1.1192799e-05
2.7049573e-05
1.0285858e-05
2.5223448e-05
9.4460161e-06
2.3544745e-05
8.6656121e-06
2.200116e-05
7.9529029e-06
2.0582199e-05
7.2957886e-06
6.7092183e-06
1.9276148e-05
8.2250038e-05
1.4253282e-05
7.9907295e-05
1.4793116e-05
7.5636906e-05
2.6346882e-05
7.156717e-05
2.3665194e-05
6.7205311e-05
2.5239507e-05
6.2947348e-05
2.409082e-05
5.8787319e-05
2.3222217e-05
5.4838152e-05
2.1734507e-05
5.108817e-05
2.0411121e-05
4.7570991e-05
1.8944071e-05
4.4276045e-05
1.7597652e-05
4.1208523e-05
1.6262763e-05
3.8357235e-05
1.5020845e-05
3.5717503e-05
1.3830166e-05
3.3278232e-05
1.2722121e-05
3.1028048e-05
1.1692607e-05
2.8957676e-05
1.0732255e-05
2.705268e-05
9.8535977e-06
2.5300788e-05
9.042543e-06
8.3165913e-06
2.3687714e-05
9.990304e-05
1.6869111e-05
9.7175201e-05
1.752043e-05
9.2184418e-05
3.133709e-05
8.7345295e-05
2.8503673e-05
8.2150622e-05
3.0433432e-05
7.704771e-05
2.9192894e-05
7.2042176e-05
2.8226798e-05
6.7270313e-05
2.6505178e-05
6.2723443e-05
2.4956725e-05
5.8444654e-05
2.3221555e-05
5.442497e-05
2.1615964e-05
5.0673255e-05
2.0013051e-05
4.7178445e-05
1.8513781e-05
4.3936786e-05
1.7069533e-05
4.0936622e-05
1.5719063e-05
3.8165507e-05
1.4460193e-05
3.5613216e-05
1.3280783e-05
3.3262955e-05
1.2199489e-05
3.1100495e-05
1.1200235e-05
1.0302875e-05
2.9108457e-05
0.00012122388
1.9900321e-05
0.0001180581
2.0685675e-05
0.00011224873
3.7145845e-05
0.0001065117
3.4239961e-05
0.00010034195
3.6602437e-05
9.4241235e-05
3.5292676e-05
8.8231625e-05
3.4235395e-05
8.2477147e-05
3.2258111e-05
7.697394e-05
3.0458321e-05
7.1776981e-05
2.8416849e-05
6.6880138e-05
2.6511103e-05
6.229735e-05
2.4594122e-05
5.8018399e-05
2.2790537e-05
5.4041204e-05
2.1043893e-05
5.0353975e-05
1.9402653e-05
4.6943416e-05
1.7866422e-05
4.3798515e-05
1.6421185e-05
4.0899916e-05
1.509288e-05
3.8231298e-05
1.3862636e-05
1.2755681e-05
3.5771564e-05
0.00014694871
2.3398201e-05
0.00014328703
2.4346732e-05
0.00013655347
4.3878715e-05
0.0001297735
4.101916e-05
0.00012246653
4.3908504e-05
0.00011519145
4.2566757e-05
0.00010799297
4.143273e-05
0.00010106795
3.9181711e-05
9.4419732e-05
3.7105025e-05
8.8118171e-05
3.471685e-05
8.2161668e-05
3.2465961e-05
7.6571055e-05
3.0183029e-05
7.1337997e-05
2.8021344e-05
6.6463122e-05
2.5916026e-05
6.193517e-05
2.3926729e-05
5.7740386e-05
2.2056951e-05
5.3867277e-05
2.0289745e-05
5.0293777e-05
1.8661106e-05
4.7001398e-05
1.7149305e-05
1.5785491e-05
4.3964603e-05
0.0001779538
2.7416523e-05
0.00017373301
2.8566877e-05
0.00016596346
5.1647525e-05
0.00015797864
4.9003099e-05
0.00014935116
5.2535085e-05
0.00014069899
5.1217805e-05
0.00013209742
5.0033082e-05
0.00012378197
4.7495324e-05
0.00011576636
4.5118714e-05
0.00010813893
4.2342283e-05
0.00010090489
3.9697955e-05
9.4094312e-05
3.6991554e-05
8.7702185e-05
3.441083e-05
8.1733268e-05
3.1881549e-05
7.6177807e-05
2.9477794e-05
7.1022214e-05
2.720733e-05
6.625502e-05
2.5051512e-05
6.18514e-05
2.3058432e-05
5.779073e-05
2.1202468e-05
1.9525627e-05
5.4042192e-05
0.00021527944
3.2009844e-05
0.00021043114
3.3414428e-05
0.00020150938
6.056846e-05
0.00019214147
5.8370088e-05
0.00018198816
6.268732e-05
0.00017172792
6.1476839e-05
0.00016147642
6.028322e-05
0.0001515146
5.7455461e-05
0.00014187057
5.4760943e-05
0.00013265567
5.155532e-05
0.00012388485
4.8466809e-05
0.00011560044
4.5273925e-05
0.00010780273
4.2205825e-05
0.00010050253
3.9178481e-05
9.3692967e-05
3.6282692e-05
8.7361588e-05
3.353357e-05
8.1497726e-05
3.0909887e-05
7.6073891e-05
2.8475896e-05
7.1067523e-05
2.6201951e-05
2.4143114e-05
6.6441555e-05
0.00026015705
3.7232208e-05
0.00025460762
3.8963095e-05
0.00024441551
7.0759685e-05
0.00023347164
6.9312911e-05
0.0002215653
7.4592572e-05
0.00020943608
7.3604725e-05
0.0001972523
7.2465548e-05
0.00018534797
6.9357606e-05
0.00017377075
6.633586e-05
0.00016266043
6.2663272e-05
0.00015204554
5.9079248e-05
0.00014198451
5.53325e-05
0.00013248562
5.1701544e-05
0.00012356824
4.8091803e-05
0.00011523037
4.4615265e-05
0.00010746204
4.1295626e-05
0.00010025455
3.8110837e-05
9.3578074e-05
3.5144769e-05
8.7408551e-05
3.2362415e-05
2.9839916e-05
8.1701579e-05
0.00031403914
4.3134396e-05
0.00030770982
4.5291531e-05
0.00029613054
8.233797e-05
0.00028340665
8.2035711e-05
0.00026949946
8.8498485e-05
0.0002552098
8.7892948e-05
0.00024077365
8.6900071e-05
0.00022658667
8.3542575e-05
0.00021272255
8.0197834e-05
0.00019935615
7.6027447e-05
0.00018653459
7.1898464e-05
0.00017433722
6.7527422e-05
0.00016278389
6.3251614e-05
0.0001519059
5.8965888e-05
0.00014170873
5.4806835e-05
0.00013218693
5.0811253e-05
0.00012333541
4.6955737e-05
0.00011512265
4.3349853e-05
0.00010752387
3.9952958e-05
3.6867419e-05
0.00010048613
0.00037863205
4.9761697e-05
0.00037143893
5.2483746e-05
0.00035836103
9.5414815e-05
0.00034364742
9.6748089e-05
0.00032747412
0.00010467048
0.00031070288
0.00010466261
0.00029365549
0.00010394573
0.00027679865
0.00010039681
0.00026024013
9.6753615e-05
0.00024419794
9.2066825e-05
0.00022874406
8.7349428e-05
0.00021398495
8.2283597e-05
0.0001999567
7.7276063e-05
0.00018670695
7.2210816e-05
0.00017425227
6.725513e-05
0.00016259446
6.2461531e-05
0.00015173438
5.7807949e-05
0.00014163994
5.3435133e-05
0.00013228691
4.9295091e-05
4.5529543e-05
0.0001236125
0.00045593064
5.7150231e-05
0.00044778453
6.0628815e-05
0.00043310666
0.00011009152
0.00041619633
0.00011365712
0.00039747969
0.0001233856
0.00037787932
0.00012426128
0.00035782395
0.00012399917
0.00033786139
0.00012035699
0.00031814332
0.00011646913
0.00029894053
0.00011126699
0.00028035792
0.00010592925
0.00026253675
0.00010010184
0.00024553551
9.4273409e-05
0.00022942386
8.8317829e-05
0.00021423429
8.2437989e-05
0.00019997962
7.6708776e-05
0.00018666992
7.1109694e-05
0.00017427428
6.5821533e-05
0.00016277095
6.0788521e-05
5.6202171e-05
0.00015208597
0.00054825376
6.5324126e-05
0.00053905969
6.982182e-05
0.00052269617
0.00012645379
0.00050339628
0.00013295557
0.00048185541
0.00014492493
0.00045905858
0.00014705625
0.00043556459
0.00014749111
0.00041201268
0.0001439058
0.00038861023
0.00013986836
0.00036569221
0.00013418169
0.00034340652
0.00012821149
0.00032193883
0.00012156606
0.00030137796
0.00011482975
0.00028182304
0.00010786704
0.0002633288
0.00010092457
0.00024592424
9.4104291e-05
0.00022963305
8.7391438e-05
0.00021442817
8.101542e-05
0.0002002932
7.4910399e-05
6.9338865e-05
0.00018714169
0.0006582784
7.4291756e-05
0.00064793586
8.0163148e-05
0.00062982225
0.00014456604
0.00060796729
0.00015480902
0.00058333015
0.00016956031
0.0005569612
0.0001734232
0.00052957247
0.00017487754
0.00050190453
0.00017157088
0.00047423437
0.00016753554
0.00044697441
0.00016143854
0.00042032776
0.00015485484
0.00039453652
0.00014735383
0.0003697301
0.0001396315
0.00034604653
0.00013154511
0.00032357118
0.00012339193
0.00030235613
0.00011531045
0.00028244468
0.00010729333
0.0002638175
9.9631554e-05
0.00024646771
9.2248415e-05
8.5496496e-05
0.00023029522
0.00078906953
8.4043631e-05
0.00077747726
9.1754186e-05
0.00075757309
0.00016446877
0.00073303433
0.00017934611
0.00070505814
0.0001975347
0.00067475098
0.00020372818
0.00064300045
0.00020662565
0.00061065733
0.00020391032
0.00057808383
0.00020010527
0.00054578499
0.00019373349
0.0005140338
0.00018660196
0.00048314327
0.00017824026
0.00045329649
0.0001694729
0.00042468255
0.00016015232
0.0003974283
0.00015063704
0.00037161815
0.0001411098
0.00034732307
0.0001315771
0.000324537
0.00012240446
0.00030326845
0.00011350132
0.00010534417
0.00028340297
0.00094410098
9.4549787e-05
0.00093116104
0.00010469274
0.00090945398
0.00018617426
0.00088215082
0.00020664755
0.00085064415
0.00022903933
0.00081606812
0.00023830189
0.00077950037
0.00024319069
0.00074190909
0.00024149826
0.00070375839
0.00023825251
0.00066566213
0.00023182615
0.00062798048
0.00022427978
0.00059111452
0.00021510213
0.00055531727
0.00020526463
0.00052084437
0.00019461879
0.00048787821
0.00018359369
0.0004565477
0.00017242969
0.00042696228
0.00016115108
0.00039913699
0.00015021656
0.0003731039
0.00013952037
0.00012969596
0.00034873425
0.0011272606
0.00010575992
0.001112884
0.00011906794
0.0010893941
0.00020966245
0.0010593029
0.00023673685
0.0010241503
0.00026418994
0.00098504491
0.00027740475
0.0009432485
0.00028498427
0.00089985178
0.00028489065
0.00085543684
0.00028266309
0.00081074215
0.00027651633
0.00076623417
0.00026878303
0.00072242224
0.00025890924
0.00067964893
0.0002480316
0.00063825548
0.00023600435
0.00059849807
0.00022334025
0.00056056609
0.00021034885
0.00052462178
0.00019708189
0.00049071211
0.00018411052
0.00045890404
0.00017130979
0.00015952278
0.00042905591
0.00134283
0.00011760293
0.0013269439
0.00013495244
0.0013017288
0.00023487583
0.0012688877
0.00026957604
0.0012300739
0.00030300141
0.0011862932
0.00032118284
0.0011389433
0.00033233096
0.0010892426
0.00033458744
0.0010379035
0.00033399831
0.00098580104
0.00032861456
0.00093352758
0.00032105204
0.00088172286
0.00031070919
0.00083084256
0.00029890537
0.00078133655
0.00028550282
0.00073355729
0.00027110832
0.0006877758
0.0002561178
0.000644226
0.00024061807
0.00060300171
0.00022531914
0.00056422027
0.00021007464
0.00019599112
0.00052773069
0.0015954257
0.00012998873
0.0015779827
0.00015239392
0.0015511429
0.00026171378
0.001515662
0.0003050548
0.0014732871
0.00034537406
0.0014248377
0.00036962936
0.0013717589
0.00038540657
0.0013153731
0.0003909682
0.0012565364
0.00039283009
0.0011962636
0.00038888211
0.0011352895
0.00038202073
0.0010744064
0.00037158666
0.0010142096
0.00035909476
0.00095528515
0.00034441811
0.00089810926
0.00032827145
0.00084306089
0.00031115107
0.00079047079
0.00029319218
0.00074049999
0.00027527134
0.0006933372
0.00025721535
0.00024047384
0.00064882913
0.0018898804
0.00014280821
0.0018708698
0.00017140287
0.0018425568
0.00029002493
0.0018046305
0.00034297895
0.0017589149
0.0003910871
0.0017059935
0.00042254787
0.0016472336
0.00044416293
0.0015839723
0.00045422505
0.0015172342
0.00045956377
0.0014481573
0.00045795436
0.0013776269
0.00045254605
0.0013066068
0.00044260132
0.0012358583
0.0004298356
0.0011661348
0.00041413297
0.0010980692
0.00039632395
0.0010321813
0.00037702432
0.00096892989
0.00035642754
0.00090857102
0.0003356117
0.00085139328
0.00031437353
0.00029458864
0.0007972533
0.0022310377
0.00015593323
0.0022105009
0.00019193814
0.0021809271
0.0003195968
0.0021408461
0.00038305763
0.0020921525
0.00043977819
0.002035166
0.00047953137
0.0019710472
0.00050827799
0.0019010154
0.00052425118
0.0018262502
0.00053432348
0.0017479781
0.00053622061
0.0016672285
0.0005332895
0.0015851435
0.00052467996
0.0015026738
0.00051229666
0.0014207705
0.00049602575
0.0013402605
0.00047681916
0.0012618442
0.00045542312
0.0011861484
0.00043210463
0.0011135593
0.00040817893
0.0010445034
0.00038340358
0.0003601944
0.00097886765
0.0026234106
0.00016922141
0.0026014688
0.00021387829
0.0025709234
0.00035014019
0.0025290949
0.00042488394
0.0024779458
0.00049092463
0.0024175288
0.0005399453
0.0023486993
0.00057710354
0.0022724051
0.00060054048
0.0021898962
0.00061682763
0.0021024306
0.00062368094
0.0020111487
0.00062456589
0.0019173565
0.00061846594
0.0018222041
0.00060744023
0.0017268656
0.00059135441
0.0016323987
0.00057127111
0.0015397297
0.00054807528
0.0014497017
0.00052211401
0.0013628777
0.00049498151
0.0012798701
0.00046638863
0.00043940768
0.0012006273
0.0030706584
0.0001825263
0.003047544
0.00023699109
0.0030164264
0.00038125581
0.0029734062
0.00046790182
0.0029205158
0.00054381231
0.0028575473
0.00060291062
0.002785028
0.00064961882
0.0027034946
0.00068206776
0.002614078
0.00070623825
0.0025179942
0.00071975843
0.0024164219
0.00072613141
0.0023107797
0.00072410102
0.002202401
0.00071580911
0.0020926905
0.00070105305
0.0019829672
0.00068097764
0.0018744286
0.00065659379
0.0017681892
0.00062833189
0.0016650457
0.00059809973
0.0015658593
0.00056554522
0.00053454638
0.0014706856
0.0035748266
0.00019568645
0.0035509005
0.00026091548
0.0035197586
0.00041239578
0.0034763197
0.0005113385
0.0034226582
0.00059747108
0.003358323
0.00066724264
0.0032835498
0.00072438784
0.0031983992
0.00076721328
0.0031036301
0.00080100241
0.0030002786
0.00082310433
0.0028894605
0.00083694355
0.0027726
0.00084095473
0.0026511546
0.00083724472
0.0025267335
0.00082546325
0.0024009257
0.00080676885
0.002275237
0.00078226343
0.0021511084
0.00075243938
0.0020296372
0.00071954643
0.0019120079
0.00068314863
0.0006480704
0.0017984497
0.0041352167
0.00020850254
0.0041110281
0.00028510242
0.0040806003
0.0004428217
0.0040378384
0.00055409814
0.0039847554
0.00065055133
0.003920697
0.00073129786
0.0038455905
0.00079949009
0.0037591057
0.00085369157
0.0036614416
0.0008986604
0.0035531526
0.00093138656
0.0034352048
0.00095488413
0.0033088536
0.00096729833
0.0031755626
0.00097052475
0.0030370618
0.00096395105
0.0028951777
0.00094863438
0.0027517346
0.00092568422
0.002608543
0.00089560664
0.0024670692
0.00086099181
0.002328906
0.00082127794
0.00078239287
0.0021945434
0.0047467605
0.00022068249
0.004723154
0.0003087074
0.0046945364
0.00047143747
0.0046540644
0.00059456795
0.0046035221
0.00070109096
0.0045420708
0.00079274606
0.0044692999
0.00087225668
0.0043845134
0.00093847301
0.0042873575
0.00099581137
0.0041776939
0.0010410443
0.004056055
0.0010765168
0.0039233616
0.0010999847