/*--------------------------------*- C++ -*----------------------------------*\
| =========                 |                                                 |
| \\      /  F ield         | OpenFOAM: The Open Source CFD Toolbox           |
|  \\    /   O peration     | Version:  2406                                  |
|   \\  /    A nd           | Website:  www.openfoam.com                      |
|    \\/     M anipulation  |                                                 |
\*---------------------------------------------------------------------------*/
FoamFile
{
    version     2.0;
    format      ascii;
    arch        "LSB;label=32;scalar=64";
    class       volScalarField;
    location    "100";
    object      pWall;
}
// * * * * * * * * * * * * * * * * * * * * * * * * * * * * * * * * * * * * * //

dimensions      [0 2 -2 0 0 0 0];

internalField   nonuniform List<scalar> 
69120
(
117.02453
109.78476
107.66111
104.40901
101.92909
99.643036
97.709654
95.975807
94.462433
93.088267
91.8502
90.70788
89.638642
88.634387
87.66428
86.730313
85.795652
84.870584
83.916482
82.939467
117.02482
109.78488
107.66128
104.40912
101.9292
99.643122
97.709725
95.975863
94.462479
93.088304
91.850229
90.707903
89.63866
88.634401
87.664293
86.73032
85.795658
84.87059
83.916486
82.939469
117.02514
109.78503
107.6615
104.40927
101.92934
99.64323
97.709813
95.975933
94.462536
93.088349
91.850265
90.707932
89.638683
88.634419
87.664307
86.73033
85.795667
84.870596
83.91649
82.939471
117.02548
109.78518
107.66172
104.40942
101.92948
99.64334
97.709904
95.976005
94.462594
93.088395
91.850302
90.707962
89.638706
88.634437
87.664323
86.730338
85.795675
84.870602
83.916495
82.939473
117.02585
109.78534
107.66195
104.40958
101.92963
99.643459
97.710001
95.976082
94.462657
93.088444
91.850341
90.707994
89.638731
88.634457
87.664339
86.730347
85.795683
84.870608
83.916498
82.939475
117.02625
109.78552
107.66221
104.40976
101.92979
99.643589
97.710109
95.976166
94.462725
93.088498
91.850384
90.708029
89.638757
88.634477
87.664357
86.730355
85.795691
84.870614
83.916501
82.939476
117.02667
109.78571
107.6625
104.40996
101.92997
99.643733
97.710226
95.976259
94.462801
93.088558
91.850432
90.708067
89.638786
88.6345
87.664375
86.730365
85.7957
84.870621
83.916503
82.939478
117.02711
109.78592
107.66281
104.41017
101.93017
99.64389
97.710356
95.976361
94.462884
93.088623
91.850484
90.708109
89.638819
88.634525
87.664396
86.730375
85.79571
84.870628
83.916505
82.939479
117.02756
109.78615
107.66315
104.41041
101.93039
99.644064
97.710498
95.976474
94.462975
93.088695
91.850541
90.708156
89.638854
88.634552
87.664418
86.730387
85.795721
84.870636
83.916507
82.939482
117.02806
109.78641
107.66352
104.41067
101.93063
99.644254
97.710656
95.976597
94.463076
93.088775
91.850605
90.708207
89.638893
88.634583
87.664443
86.730401
85.795733
84.870645
83.91651
82.939484
117.02859
109.78668
107.66393
104.41096
101.9309
99.644465
97.710829
95.976735
94.463188
93.088863
91.850676
90.708264
89.638937
88.634617
87.664469
86.730416
85.795747
84.870655
83.916512
82.939488
117.02917
109.78698
107.66437
104.41127
101.93119
99.644696
97.71102
95.976886
94.463311
93.088961
91.850754
90.708327
89.638985
88.634655
87.664499
86.730435
85.795763
84.870666
83.916517
82.939493
117.02979
109.7873
107.66485
104.41161
101.93151
99.644951
97.71123
95.977054
94.463447
93.089069
91.85084
90.708397
89.639039
88.634697
87.664532
86.730456
85.795781
84.870679
83.916522
82.939498
117.03046
109.78765
107.66537
104.41199
101.93186
99.645232
97.711463
95.977239
94.463598
93.089189
91.850937
90.708475
89.639099
88.634744
87.664569
86.73048
85.795801
84.870694
83.916528
82.939505
117.03117
109.78802
107.66594
104.4124
101.93224
99.645541
97.711719
95.977443
94.463765
93.089323
91.851044
90.708561
89.639167
88.634797
87.66461
86.730508
85.795824
84.870711
83.916536
82.939513
117.03193
109.78843
107.66655
104.41285
101.93266
99.645881
97.712002
95.97767
94.46395
93.089471
91.851163
90.708657
89.639242
88.634856
87.664656
86.73054
85.79585
84.87073
83.916547
82.939523
117.03274
109.78887
107.66721
104.41335
101.93312
99.646255
97.712313
95.97792
94.464155
93.089635
91.851295
90.708764
89.639325
88.634922
87.664707
86.730577
85.79588
84.870752
83.916559
82.939535
117.03361
109.78934
107.66793
104.41389
101.93362
99.646665
97.712657
95.978197
94.464381
93.089817
91.851443
90.708883
89.639419
88.634996
87.664766
86.730619
85.795914
84.870778
83.916574
82.939548
117.03452
109.78984
107.66869
104.41447
101.93417
99.647116
97.713034
95.978502
94.464632
93.090019
91.851606
90.709015
89.639523
88.635079
87.66483
86.730667
85.795953
84.870807
83.916592
82.939565
117.03548
109.79037
107.66951
104.41512
101.93477
99.64761
97.713449
95.978839
94.464909
93.090243
91.851788
90.709163
89.63964
88.635171
87.664904
86.730722
85.795997
84.870841
83.916614
82.939583
117.03649
109.79094
107.67039
104.41581
101.93542
99.648151
97.713905
95.979211
94.465215
93.090491
91.85199
90.709327
89.639771
88.635275
87.664985
86.730784
85.796047
84.870879
83.916639
82.939605
117.03755
109.79154
107.67132
104.41657
101.93612
99.648742
97.714406
95.979621
94.465553
93.090767
91.852215
90.709509
89.639916
88.635392
87.665077
86.730854
85.796104
84.870922
83.916668
82.939631
117.03864
109.79218
107.67231
104.41739
101.93689
99.649388
97.714954
95.980073
94.465927
93.091072
91.852464
90.709712
89.640079
88.635522
87.66518
86.730934
85.796168
84.870972
83.916702
82.93966
117.03978
109.79285
107.67335
104.41828
101.93771
99.650092
97.715555
95.980569
94.466339
93.091409
91.85274
90.709937
89.64026
88.635667
87.665296
86.731023
85.79624
84.871028
83.916742
82.939694
117.04093
109.79355
107.67444
104.41924
101.93861
99.650859
97.716211
95.981114
94.466794
93.091782
91.853047
90.710188
89.640462
88.63583
87.665426
86.731125
85.796322
84.871092
83.916788
82.939733
117.0421
109.79428
107.67558
104.42028
101.93957
99.651693
97.716927
95.981712
94.467294
93.092195
91.853387
90.710467
89.640687
88.636012
87.665572
86.73124
85.796414
84.871164
83.916841
82.939778
117.04327
109.79505
107.67676
104.42141
101.9406
99.652597
97.717707
95.982367
94.467843
93.09265
91.853763
90.710776
89.640938
88.636216
87.665734
86.731369
85.796519
84.871246
83.916902
82.939829
117.0444
109.79584
107.67796
104.42261
101.9417
99.653576
97.718556
95.983083
94.468447
93.093152
91.85418
90.711119
89.641218
88.636443
87.665917
86.731514
85.796636
84.871339
83.916971
82.939887
117.04547
109.79665
107.67918
104.42391
101.94287
99.654634
97.719477
95.983866
94.46911
93.093705
91.85464
90.711499
89.641529
88.636696
87.666122
86.731678
85.796769
84.871444
83.917051
82.939954
117.04643
109.79747
107.68039
104.42531
101.94412
99.655775
97.720475
95.98472
94.469835
93.094314
91.855148
90.711921
89.641875
88.636979
87.666351
86.731862
85.796918
84.871563
83.917141
82.940029
117.04722
109.79831
107.68156
104.42681
101.94544
99.657002
97.721554
95.985649
94.470628
93.094982
91.855709
90.712387
89.642259
88.637294
87.666606
86.732068
85.797086
84.871697
83.917245
82.940115
117.04776
109.79916
107.68265
104.42842
101.94683
99.658321
97.722717
95.986659
94.471493
93.095716
91.856326
90.712903
89.642685
88.637644
87.666892
86.732299
85.797274
84.871848
83.917362
82.940212
117.04796
109.8
107.68361
104.43014
101.94828
99.659732
97.723968
95.987755
94.472437
93.09652
91.857005
90.713472
89.643157
88.638034
87.667211
86.732558
85.797486
84.872018
83.917495
82.940323
117.04765
109.80083
107.68437
104.43199
101.94978
99.661242
97.725312
95.988942
94.473464
93.097399
91.857752
90.7141
89.64368
88.638468
87.667567
86.732849
85.797723
84.87221
83.917645
82.940448
117.04666
109.80165
107.68484
104.43398
101.95134
99.662851
97.726749
95.990225
94.474579
93.098361
91.858571
90.714793
89.644259
88.638949
87.667963
86.733173
85.797989
84.872425
83.917815
82.94059
117.04474
109.80243
107.6849
104.43612
101.95292
99.664565
97.728285
95.991611
94.475789
93.09941
91.859469
90.715555
89.644899
88.639483
87.668404
86.733536
85.798288
84.872668
83.918007
82.940749
117.04154
109.80318
107.68438
104.43842
101.95452
99.666383
97.729921
95.993107
94.4771
93.100555
91.860452
90.716393
89.645605
88.640075
87.668895
86.733941
85.798621
84.87294
83.918224
82.94093
117.03663
109.80386
107.68307
104.4409
101.95612
99.668312
97.731662
95.994719
94.478518
93.101802
91.861527
90.717314
89.646384
88.64073
87.669441
86.734392
85.798994
84.873245
83.918469
82.941133
117.02942
109.80448
107.68069
104.44358
101.95768
99.670352
97.733509
95.996457
94.480052
93.10316
91.862703
90.718326
89.647243
88.641455
87.670046
86.734895
85.799411
84.873586
83.918744
82.941362
117.01914
109.80499
107.67687
104.44646
101.95919
99.672506
97.735468
95.998332
94.481711
93.104641
91.863988
90.719438
89.64819
88.642258
87.670719
86.735455
85.799877
84.873969
83.919053
82.94162
117.0048
109.80531
107.67116
104.44954
101.9606
99.674775
97.737545
96.000359
94.483507
93.106256
91.865394
90.720659
89.649234
88.643145
87.671464
86.736078
85.800396
84.874397
83.919401
82.94191
116.9851
109.80528
107.66299
104.45281
101.96187
99.677161
97.739749
96.002556
94.485454
93.108021
91.866935
90.722003
89.650385
88.644127
87.672293
86.736772
85.800975
84.874876
83.919791
82.942236
116.95837
109.80476
107.65159
104.45623
101.96293
99.679659
97.742095
96.004948
94.487571
93.109957
91.868626
90.723484
89.651656
88.645214
87.673212
86.737544
85.801621
84.875412
83.920229
82.942601
116.92251
109.80353
107.63603
104.45972
101.96371
99.682259
97.744602
96.007567
94.489884
93.112091
91.87049
90.725122
89.653065
88.646422
87.674235
86.738404
85.802343
84.876011
83.92072
82.943012
116.87487
109.80115
107.61522
104.46315
101.9641
99.684945
97.747298
96.010458
94.492428
93.114459
91.872556
90.726943
89.65463
88.647766
87.675375
86.739365
85.80315
84.876683
83.921271
82.943473
116.81215
109.79691
107.58781
104.46629
101.96398
99.687689
97.750209
96.013677
94.495247
93.117106
91.87486
90.728979
89.656378
88.64927
87.676651
86.740442
85.804054
84.877436
83.921891
82.943991
116.73041
109.78973
107.55214
104.46878
101.96319
99.69044
97.753367
96.017292
94.498402
93.120094
91.877453
90.731275
89.658345
88.650961
87.678087
86.741652
85.805071
84.878283
83.922589
82.944574
116.62503
109.77825
107.50635
104.46988
101.96157
99.693128
97.756813
96.021374
94.501971
93.1235
91.880399
90.733886
89.660577
88.65288
87.679712
86.743021
85.806221
84.87924
83.923377
82.945231
116.48943
109.76145
107.44906
104.46824
101.95885
99.695665
97.760581
96.025993
94.506051
93.127425
91.883782
90.736889
89.663133
88.655074
87.681567
86.744581
85.807528
84.880327
83.924272
82.945975
116.31466
109.73697
107.38118
104.46206
101.95455
99.697923
97.764682
96.031224
94.510758
93.131988
91.887707
90.740378
89.666092
88.657611
87.683705
86.746374
85.809026
84.881571
83.925294
82.94682
116.09105
109.7003
107.30176
104.45111
101.94835
99.699702
97.769099
96.037144
94.516211
93.137331
91.892301
90.74447
89.669552
88.660575
87.686193
86.748457
85.81076
84.883005
83.92647
82.947785
115.8086
109.64872
107.20638
104.43526
101.94
99.700733
97.773799
96.043811
94.522533
93.1436
91.897714
90.749308
89.673637
88.664072
87.689122
86.750901
85.812786
84.884675
83.927835
82.948898
115.45766
109.57964
107.09367
104.41198
101.92877
99.700663
97.778693
96.051274
94.529853
93.15093
91.904111
90.75505
89.678488
88.668231
87.692598
86.753799
85.81518
84.886641
83.929436
82.950189
115.03157
109.48698
106.9641
104.37878
101.91407
99.699093
97.783636
96.059535
94.538251
93.159446
91.911661
90.761859
89.684268
88.673199
87.696753
86.757263
85.818036
84.888977
83.931335
82.951704
114.52951
109.36357
106.8163
104.33256
101.8957
99.69566
97.788485
96.068527
94.547737
93.169273
91.920503
90.769888
89.691153
88.679134
87.701731
86.761425
85.821464
84.891778
83.933608
82.953497
113.93983
109.2101
106.65861
104.26842
101.87291
99.689324
97.792684
96.078161
94.558237
93.180436
91.930739
90.779283
89.69929
88.686202
87.707691
86.766428
85.825592
84.895154
83.936348
82.955637
113.28027
109.05182
106.4995
104.1945
101.83739
99.679384
97.794686
96.088378
94.569654
93.192828
91.942383
90.790123
89.708813
88.694524
87.714787
86.772427
85.830556
84.899225
83.939663
82.958207
112.58292
108.88301
106.33184
104.10716
101.79166
99.668784
97.792708
96.09868
94.582109
93.206192
91.955286
90.802398
89.719751
88.704201
87.723164
86.779526
85.83651
84.904122
83.943673
82.961294
111.87477
108.66902
106.15308
103.99878
101.74645
99.654338
97.788362
96.106408
94.596925
93.221129
91.969424
90.815995
89.732057
88.715258
87.732851
86.787838
85.843578
84.909943
83.948519
82.964988
111.15582
108.40717
105.96216
103.87413
101.69379
99.633283
97.78506
96.112194
94.611775
93.237538
91.985104
90.830915
89.745633
88.727619
87.743828
86.797402
85.8518
84.916811
83.95429
82.969376
110.42729
108.10036
105.7573
103.7325
101.62959
99.606575
97.779713
96.11959
94.624322
93.253423
92.002213
90.847473
89.760762
88.741277
87.755989
86.808153
85.861167
84.924763
83.961032
82.974577
109.6923
107.74885
105.53424
103.57381
101.55246
99.57319
97.770532
96.125625
94.636198
93.26986
92.019489
90.864338
89.777635
88.756826
87.769672
86.820101
85.871576
84.933747
83.968761
82.980651
108.95394
107.35316
105.2889
103.3977
101.46042
99.532165
97.756776
96.129119
94.64781
93.286871
92.036965
90.881885
89.795286
88.772822
87.785161
86.833891
85.883363
84.943693
83.977415
82.987618
108.21516
106.9148
105.01774
103.20324
101.35157
99.481963
97.73742
96.129666
94.658641
93.303596
92.055633
90.900963
89.813715
88.78913
87.801647
86.847967
85.897342
84.95504
83.987093
82.995472
107.47858
106.43612
104.71758
102.98899
101.22445
99.420622
97.711357
96.126519
94.667922
93.319889
92.075093
90.920936
89.833586
88.807418
87.819045
86.862061
85.912511
84.967544
83.998102
83.004384
106.7464
105.92037
104.38586
102.75329
101.07773
99.345992
97.677357
96.118691
94.674951
93.335502
92.094878
90.941668
89.85481
88.82715
87.837863
86.878297
85.92814
84.980253
84.010043
83.014332
106.02024
105.37159
104.02079
102.49435
100.91006
99.25587
97.633954
96.105053
94.67896
93.349968
92.114647
90.963136
89.877132
88.848178
87.858121
86.896252
85.944894
84.993939
84.022882
83.024847
105.30117
104.79445
103.62155
102.21036
100.72011
99.148103
97.579439
96.084316
94.679038
93.362691
92.134019
90.98519
89.900398
88.870591
87.879676
86.915754
85.962863
85.009454
84.036834
83.036205
104.5897
104.19403
103.18842
101.89961
100.50656
99.020654
97.511863
96.055035
94.674122
93.37293
92.152537
91.007563
89.924492
88.894352
87.902565
86.936798
85.982184
85.026463
84.05194
83.048787
103.88592
103.57546
102.72287
101.56071
100.26813
98.871641
97.429095
96.015597
94.662975
93.379788
92.169649
91.029885
89.949274
88.919342
87.926853
86.95938
86.003005
85.044844
84.068346
83.062515
103.18951
102.94369
102.22741
101.19282
100.00369
98.699377
97.328911
95.964231
94.644182
93.38221
92.184671
91.051697
89.974514
88.94543
87.952527
86.983532
86.025363
85.06474
84.086095
83.077494
102.50028
102.3031
101.70544
100.79582
99.712271
98.502393
97.209112
95.899001
94.616147
93.378983
92.19676
91.072445
89.999886
88.972453
87.97952
87.009286
86.049288
85.086271
84.10523
83.09384
101.81801
101.65748
101.16099
100.37049
99.393298
98.279467
97.067643
95.817842
94.577116
93.368724
92.204904
91.091451
90.024965
89.000174
88.007731
87.036616
86.074839
85.109479
84.125877
83.111588
101.14224
101.01011
100.59853
99.91852
99.04668
98.029707
96.9027
95.718635
94.525201
93.349882
92.207922
91.107894
90.049222
89.02827
88.037023
87.065452
86.102066
85.134392
84.148149
83.130795
100.47292
100.3636
100.02247
99.442476
98.672937
97.752628
96.712794
95.599314
94.458415
93.320749
92.204465
91.120793
90.072004
89.056322
88.067181
87.095688
86.130969
85.16105
84.17212
83.15155
99.810494
99.71989
99.436979
98.945614
98.273307
97.44825
96.496845
95.457993
94.374731
93.279492
92.193018
91.129005
90.092518
89.083809
88.097908
87.12718
86.161505
85.189487
84.197843
83.173941
99.155655
99.080559
98.845794
98.431657
97.849784
97.11718
96.254271
95.293086
94.272174
93.224199
92.171921
91.131224
90.109819
89.110093
88.12881
87.159719
86.193585
85.219702
84.225363
83.198042
98.50927
98.447057
98.252224
97.904529
97.405059
96.760676
95.985069
95.103432
94.148935
93.152948
92.139407
91.125991
90.122806
89.134405
88.159391
87.193019
86.227073
85.25166
84.254704
83.22391
97.872312
97.820806
97.659177
97.368136
96.942389
96.380683
95.689883
94.888402
94.003504
93.063893
92.093655
91.11172
90.13023
89.155834
88.189037
87.226703
86.261769
85.285282
84.285865
83.25159
97.245853
97.203234
97.069254
96.826225
96.465416
95.979806
95.370049
94.648007
93.834804
92.955384
92.032868
91.08674
90.130708
89.173331
88.217014
87.260298
86.297402
85.320435
84.31881
83.281099
96.631051
96.595805
96.484841
96.282319
95.977986
95.561225
95.027611
94.382963
93.642321
92.826098
91.955372
91.04936
90.122757
89.185716
88.242459
87.293221
86.333613
85.356924
84.353459
83.312428
96.029157
96.000021
95.908196
95.73972
95.484001
95.128567
94.665287
94.094743
93.426219
92.675181
91.859741
90.99796
90.104846
89.191707
88.264388
87.324777
86.369952
85.394485
84.38968
83.34553
95.44152
95.417436
95.341508
95.201547
94.987325
94.685771
94.286395
93.785574
93.187426
92.502389
91.744932
90.931105
90.075476
89.189959
88.281716
87.354163
86.40587
85.43277
84.427279
83.380311
94.869611
94.849704
94.786948
94.670782
94.491733
94.236955
93.894754
93.458412
92.927679
92.308206
91.61044
90.847677
90.033282
89.179132
88.293292
87.38048
86.44072
85.471344
84.465989
83.41662
94.31506
94.298612
94.246721
94.150339
94.00092
93.786336
93.494568
93.116868
92.649538
92.093946
91.45644
90.747028
89.97716
89.157984
88.297953
87.402759
86.473765
85.509683
84.505462
83.45424
93.779683
93.766085
93.723136
93.643144
93.518543
93.33818
93.090335
92.765128
92.356362
91.861802
91.283919
90.629143
89.906421
89.125491
88.294607
87.420013
86.504194
85.547175
84.545262
83.492876
93.265543
93.254282
93.21868
93.152212
93.048286
92.896815
92.686779
92.407863
92.052253
91.614875
91.094777
90.494788
89.820957
89.080993
88.282345
87.431302
86.53117
85.583135
84.584867
83.532142
92.775036
92.765685
92.736102
92.680743
92.593945
92.466674
92.288829
92.050161
91.74199
91.357151
90.891901
90.345655
89.721412
89.024359
88.260575
87.435828
86.553874
85.616827
84.623666
83.571558
92.310998
92.303205
92.27852
92.232263
92.159574
92.052366
91.901677
91.697511
91.431003
91.093502
90.679218
90.184484
89.609365
88.956173
88.229185
87.433061
86.571591
85.647504
84.660971
83.610536
91.876861
91.87033
91.849603
91.810777
91.749525
91.658896
91.530777
91.35585
91.125284
90.82963
90.461696
90.015149
89.487491
88.877927
88.188742
87.422889
86.583827
85.674481
84.69605
83.648381
91.476881
91.471356
91.453812
91.420946
91.368937
91.291844
91.182219
91.031724
90.831505
90.572211
90.245265
89.84278
89.359639
88.792191
88.140643
87.40572
86.590364
85.697172
84.728153
83.684299
91.116452
91.111731
91.09673
91.0686
91.024009
90.957733
90.863106
90.732506
90.557464
90.328781
90.037097
89.673526
89.230654
88.702886
88.087416
87.382843
86.591452
85.715133
84.756532
83.71739
90.802393
90.798295
90.785267
90.760819
90.722008
90.664197
90.581389
90.466596
90.311821
90.108084
89.845758
89.515167
89.107362
88.614835
88.032304
87.356633
86.588154
85.72823
84.780461
83.74664
90.543674
90.540045
90.528494
90.506797
90.472313
90.420856
90.346963
90.244169
90.104923
89.920516
89.681284
89.377069
88.99789
88.534728
87.980387
87.330083
86.582001
85.736903
84.799314
83.77091
90.352243
90.348932
90.338388
90.318571
90.287046
90.239946
90.172188
90.077694
89.949261
89.778435
89.55561
89.270386
88.912144
88.470826
87.937871
87.30703
86.575194
85.74206
84.81256
83.788879
90.244849
90.241718
90.231716
90.212898
90.182945
90.138163
90.073675
89.983617
89.86099
89.697498
89.483598
89.208796
88.862167
88.433106
87.912308
87.29268
86.570409
85.744357
84.819627
83.798829
82.060242
81.296178
80.586724
79.920813
79.293357
78.70247
78.14496
77.615128
77.111674
76.633916
76.178872
75.746607
75.333706
74.941374
74.567258
74.211044
73.872549
73.550606
73.243047
72.95004
72.671117
72.405761
72.152938
71.91475
71.689179
71.478155
71.280643
71.094875
70.921433
70.759532
70.609283
70.47118
70.343582
70.228033
70.123062
70.029741
69.947554
69.875852
69.815268
69.765216
69.72485
69.693739
69.671573
69.659276
69.654437
69.661407
69.674545
69.697877
69.728469
69.762037
69.803454
69.850981
69.90764
69.971509
70.044564
70.126211
70.216161
70.316419
70.423778
70.54135
70.667109
70.802108
70.944494
71.097466
71.257139
71.427997
71.606048
71.79396
71.990129
72.195309
72.410103
72.632098
72.862503
73.100448
73.347
73.600487
73.862063
74.130427
74.40668
74.688674
74.977985
75.272284
75.573244
75.87996
76.19211
76.50866
76.830324
77.155273
77.486141
77.818542
78.155361
78.493908
78.836702
79.179588
79.525394
79.87172
80.219256
80.567722
80.916363
81.264465
81.612219
81.95866
82.303218
82.646946
82.988675
83.328853
83.666186
84.00124
84.334107
84.662817
84.988974
85.309933
85.628264
85.941047
86.250935
86.555021
86.855966
87.150955
87.442409
87.728542
88.009912
88.285517
88.556278
88.821988
89.081619
89.335963
89.584783
89.828477
90.066456
90.299387
90.52692
90.749362
90.966302
91.178296
91.385272
91.586888
91.783809
91.97475
92.161811
92.343076
92.52065
92.692579
92.861127
93.024076
93.183796
93.338105
93.489305
93.635448
93.777938
93.915998
94.050167
94.180874
94.308298
94.431687
94.551674
94.668347
94.782468
94.892591
95.000638
95.105366
82.060248
81.296175
80.586726
79.920814
79.293359
78.702472
78.144961
77.61513
77.111676
76.633916
76.178874
75.746609
75.333708
74.941377
74.567261
74.211047
73.872552
73.55061
73.24305
72.950044
72.671122
72.405762
72.152945
71.914749
71.689185
71.478159
71.280647
71.094878
70.921436
70.759535
70.609287
70.471181
70.343588
70.228034
70.123067
70.029744
69.947556
69.875854
69.81527
69.765219
69.72485
69.693741
69.671573
69.659272
69.654442
69.6614
69.674546
69.697876
69.728465
69.762033
69.803449
69.850978
69.907635
69.971505
70.044559
70.126204
70.216155
70.316406
70.423772
70.541336
70.667101
70.802092
70.944486
71.097446
71.257129
71.427975
71.606033
71.793936
71.990111
72.195287
72.410076
72.632071
72.862474
73.100419
73.346968
73.600456
73.862029
74.130394
74.406643
74.688638
74.977945
75.272245
75.573198
75.879919
76.19206
76.508616
76.830272
77.155228
77.486085
77.818493
78.155304
78.493858
78.836642
79.179535
79.525332
79.871664
80.219198
80.567661
80.9163
81.264402
81.612154
81.958594
82.303154
82.646879
82.98861
83.328785
83.666119
84.001173
84.334036
84.662747
84.988899
85.309864
85.628189
85.940978
86.25086
86.554953
86.855892
87.150886
87.442335
87.728472
88.009837
88.285447
88.556208
88.821915
89.081548
89.335892
89.584714
89.828408
90.066388
90.299319
90.526853
90.749295
90.966237
91.17823
91.385206
91.586823
91.783741
91.974688
92.161745
92.343016
92.520586
92.69252
92.861063
93.024017
93.183732
93.338047
93.489242
93.63539
93.777881
93.915941
94.050111
94.180819
94.308244
94.431633
94.551621
94.668294
94.782416
94.89254
95.000588
95.105316
82.060255
81.296171
80.586728
79.920816
79.29336
78.702473
78.144962
77.615131
77.111678
76.633916
76.178877
75.746611
75.333709
74.94138
74.567262
74.211049
73.872555
73.550614
73.243052
72.950048
72.671127
72.405762
72.152953
71.914746
71.689193
71.478163
71.280652
71.094881
70.921439
70.759538
70.609291
70.471181
70.343594
70.228033
70.123073
70.029746
69.947558
69.875856
69.815271
69.765223
69.72485
69.693743
69.671574
69.659266
69.654449
69.66139
69.674546
69.697874
69.728461
69.762029
69.803443
69.850975
69.907629
69.971501
70.044554
70.126197
70.216149
70.31639
70.423768
70.54132
70.667093
70.802074
70.94448
71.097424
71.25712
71.427949
71.606018
71.79391
71.990092
72.195265
72.410045
72.632042
72.862443
73.100389
73.346935
73.600425
73.861993
74.130359
74.406603
74.688601
74.977901
75.272204
75.573149
75.879876
76.192005
76.508571
76.830215
77.155183
77.486023
77.818444
78.155243
78.493808
78.836576
79.179481
79.525266
79.871607
80.219138
80.567597
80.916233
81.264336
81.612085
81.958526
82.303087
82.64681
82.988542
83.328713
83.66605
84.001103
84.33396
84.662675
84.988819
85.309795
85.628109
85.940909
86.25078
86.554884
86.855813
87.150817
87.442256
87.7284
88.009758
88.285375
88.556135
88.821839
89.081473
89.335819
89.584642
89.828336
90.066318
90.299249
90.526785
90.749226
90.96617
91.178161
91.385137
91.586757
91.78367
91.974625
92.161675
92.342955
92.520518
92.692461
92.860995
93.023958
93.183663
93.337988
93.489173
93.635331
93.777821
93.915883
94.050054
94.180762
94.308188
94.431577
94.551567
94.66824
94.782363
94.892487
95.000538
95.105267
82.060264
81.296164
80.58673
79.920817
79.29336
78.702474
78.144961
77.615132
77.111678
76.633914
76.178878
75.74661
75.333709
74.941381
74.567262
74.211051
73.872557
73.550618
73.243053
72.950051
72.671131
72.405758
72.152963
71.914739
71.689202
71.478167
71.280656
71.094882
70.921442
70.75954
70.609295
70.471179
70.343602
70.228031
70.123081
70.029748
69.94756
69.875856
69.815271
69.765227
69.724849
69.693746
69.671574
69.659256
69.65446
69.661375
69.674548
69.697872
69.728456
69.762023
69.803435
69.850972
69.907622
69.971497
70.044549
70.126189
70.216144
70.31637
70.423766
70.541301
70.667087
70.802052
70.944476
71.097398
71.257115
71.427919
71.606004
71.79388
71.990074
72.195241
72.410011
72.63201
72.862408
73.100357
73.3469
73.600392
73.861955
74.130323
74.406561
74.688563
74.977854
75.272162
75.573095
75.879832
76.191945
76.508524
76.830153
77.155138
77.485955
77.818394
78.155176
78.493758
78.836504
79.179427
79.525195
79.871548
80.219076
80.567531
80.916163
81.264267
81.612012
81.958454
82.303018
82.646737
82.988473
83.328639
83.665979
84.00103
84.333881
84.6626
84.988733
85.309723
85.628024
85.940838
86.250696
86.554813
86.855729
87.150747
87.442173
87.728325
88.009674
88.2853
88.556059
88.821759
89.081395
89.335741
89.584567
89.828261
90.066246
90.299176
90.526713
90.749153
90.9661
91.178088
91.385065
91.586688
91.783593
91.974559
92.161601
92.342891
92.520445
92.6924
92.860922
93.023896
93.18359
93.337925
93.4891
93.635268
93.777758
93.915821
94.049994
94.180702
94.308128
94.431519
94.55151
94.668183
94.782308
94.892432
95.000485
95.105215
82.060273
81.296155
80.586731
79.920818
79.293359
78.702473
78.14496
77.615131
77.111678
76.633909
76.17888
75.746609
75.333708
74.941382
74.567262
74.211052
73.872559
73.550621
73.243053
72.950054
72.671136
72.405753
72.152974
71.914729
71.689212
71.478171
71.28066
71.094883
70.921444
70.759541
70.609299
70.471175
70.343612
70.228027
70.123088
70.02975
69.947561
69.875857
69.815271
69.765231
69.724846
69.693748
69.671574
69.659243
69.654473
69.661356
69.674549
69.697869
69.728449
69.762016
69.803426
69.850969
69.907614
69.971493
70.044544
70.126179
70.216139
70.316346
70.423766
70.54128
70.66708
70.802026
70.944473
71.097367
71.257111
71.427884
71.605989
71.793845
71.990054
72.195215
72.409972
72.631975
72.86237
73.100321
73.34686
73.600355
73.861913
74.130283
74.406514
74.688521
74.977802
75.272116
75.573035
75.879784
76.191878
76.508473
76.830083
77.15509
77.485877
77.81834
78.155102
78.493704
78.836423
79.17937
79.525115
79.871486
80.219008
80.567458
80.916086
81.264191
81.611932
81.958375
82.302943
82.646658
82.988396
83.328557
83.665901
84.000951
84.333793
84.662518
84.988637
85.309646
85.62793
85.940762
86.250601
86.554737
86.855635
87.150671
87.442081
87.728243
88.00958
88.285219
88.555976
88.82167
89.081309
89.335656
89.584485
89.828178
90.066166
90.299096
90.526636
90.749074
90.966024
91.178008
91.384986
91.586612
91.783508
91.974488
92.161519
92.342823
92.520365
92.692334
92.860841
93.02383
93.183507
93.337857
93.489017
93.635199
93.777689
93.915753
94.049928
94.180636
94.308063
94.431454
94.551447
94.66812
94.782246
94.892372
95.000427
95.105158
82.060282
81.296145
80.586732
79.920818
79.293358
78.702472
78.144958
77.61513
77.111677
76.633903
76.178882
75.746606
75.333706
74.941383
74.56726
74.211053
73.872561
73.550625
73.243053
72.950057
72.671142
72.405745
72.152987
71.914716
71.689223
71.478176
71.280664
71.094884
70.921445
70.759541
70.609303
70.471169
70.343624
70.228021
70.123097
70.029751
69.947562
69.875857
69.815271
69.765236
69.724843
69.693751
69.671574
69.659227
69.654488
69.661333
69.674551
69.697866
69.728441
69.762009
69.803415
69.850965
69.907604
69.971489
70.044538
70.126169
70.216133
70.316318
70.423766
70.541255
70.667074
70.801997
70.944472
71.097331
71.257108
71.427845
71.605973
71.793807
71.990033
72.195186
72.409928
72.631935
72.862327
73.100281
73.346816
73.600315
73.861866
74.130239
74.406461
74.688475
74.977744
75.272064
75.572968
75.879731
76.191802
76.508417
76.830004
77.155038
77.48579
77.818281
78.155019
78.493646
78.836333
79.179307
79.525027
79.871418
80.218934
80.567378
80.916001
81.264107
81.611843
81.958287
82.302861
82.64657
82.988312
83.328466
83.665814
84.000863
84.333695
84.662427
84.98853
85.309562
85.627824
85.940678
86.250496
86.554653
86.855531
87.150588
87.44198
87.728152
88.009476
88.285129
88.555883
88.821571
89.081213
89.335562
89.584394
89.828087
90.066079
90.299006
90.526549
90.748986
90.965939
91.17792
91.384898
91.586528
91.783413
91.974409
92.161427
92.342748
92.520275
92.692261
92.86075
93.023755
93.183415
93.337781
93.488924
93.635122
93.777611
93.915677
94.049854
94.180562
94.307989
94.431382
94.551376
94.668049
94.782177
94.892304
95.000362
95.105094
82.060291
81.296135
80.586733
79.920818
79.293356
78.702471
78.144955
77.615129
77.111676
76.633896
76.178884
75.746602
75.333705
74.941383
74.567258
74.211053
73.872562
73.55063
73.243052
72.95006
72.671148
72.405736
72.153003
71.914701
71.689235
71.47818
71.280669
71.094884
70.921447
70.759542
70.609308
70.471161
70.343637
70.228015
70.123106
70.029753
69.947563
69.875857
69.815271
69.765241
69.724839
69.693754
69.671574
69.659208
69.654506
69.661307
69.674553
69.697863
69.728432
69.762
69.803403
69.850961
69.907594
69.971484
70.044532
70.126157
70.216127
70.316287
70.423767
70.541229
70.667066
70.801965