/*--------------------------------*- C++ -*----------------------------------*\
| =========                 |                                                 |
| \\      /  F ield         | OpenFOAM: The Open Source CFD Toolbox           |
|  \\    /   O peration     | Version:  2406                                  |
|   \\  /    A nd           | Website:  www.openfoam.com                      |
|    \\/     M anipulation  |                                                 |
\*---------------------------------------------------------------------------*/
FoamFile
{
    version     2.0;
    format      ascii;
    arch        "LSB;label=32;scalar=64";
    class       volVectorField;
    location    "100";
    object      U;
}
// * * * * * * * * * * * * * * * * * * * * * * * * * * * * * * * * * * * * * //

dimensions      [0 1 -1 0 0 0 0];

internalField   nonuniform List<vector> 
69120
(
(0.016331827 1.457214e-07 0)
(0.016322607 2.6713558e-08 0)
(0.014683243 3.1645141e-08 0)
(0.013823365 2.2930265e-08 0)
(0.012705841 2.5918922e-08 0)
(0.011767666 4.68296e-09 0)
(0.010855505 8.6890228e-09 0)
(0.010050445 2.0425564e-09 0)
(0.0093026015 3.0502947e-09 0)
(0.0086320063 -1.4504654e-09 0)
(0.0080170515 -3.4495257e-09 0)
(0.0074592784 -2.0476348e-09 0)
(0.0069484068 -7.2388306e-09 0)
(0.0064825384 -9.0169237e-09 0)
(0.0060558223 -1.3266863e-08 0)
(0.0056648687 -2.0640947e-08 0)
(0.0053054388 -1.3329648e-08 0)
(0.0049764871 -1.0015467e-08 0)
(0.0046723709 -3.1729093e-08 0)
(0.0043935581 -3.0756923e-09 0)
(0.050630848 9.3424794e-07 0)
(0.05060009 8.4424303e-07 0)
(0.045529929 1.200922e-06 0)
(0.042864252 8.2470127e-07 0)
(0.039402034 7.8592185e-07 0)
(0.036493971 5.7202483e-07 0)
(0.03366616 4.8777673e-07 0)
(0.031169872 3.7408805e-07 0)
(0.028850765 3.071683e-07 0)
(0.026770985 2.3410201e-07 0)
(0.024863666 1.8220578e-07 0)
(0.023133624 1.4807801e-07 0)
(0.021549029 1.0228344e-07 0)
(0.020104004 7.2567341e-08 0)
(0.018780423 3.725421e-08 0)
(0.01756778 2.8652129e-10 0)
(0.01645293 1.0980481e-08 0)
(0.015432631 1.0959654e-08 0)
(0.014489375 -6.1097624e-08 0)
(0.01362462 1.7370939e-08 0)
(0.088376266 2.9932441e-06 0)
(0.088320354 2.6958151e-06 0)
(0.079493524 3.8724699e-06 0)
(0.07484112 2.6543651e-06 0)
(0.068802303 2.5060393e-06 0)
(0.063726873 1.8985502e-06 0)
(0.058790698 1.5934594e-06 0)
(0.05443213 1.2453588e-06 0)
(0.050382458 1.0160998e-06 0)
(0.046750231 7.9386773e-07 0)
(0.043418995 6.2936719e-07 0)
(0.040397247 5.1019904e-07 0)
(0.037629499 3.824711e-07 0)
(0.035105513 2.9146434e-07 0)
(0.032793667 2.0195886e-07 0)
(0.030675635 1.1248181e-07 0)
(0.028728455 1.0860481e-07 0)
(0.026946466 9.0939242e-08 0)
(0.02529907 -4.5171523e-08 0)
(0.023788825 7.5624119e-08 0)
(0.12991631 6.6818037e-06 0)
(0.12983244 5.988649e-06 0)
(0.11689948 8.6446826e-06 0)
(0.11006188 5.9241028e-06 0)
(0.10119317 5.5689266e-06 0)
(0.093733034 4.293631e-06 0)
(0.086475984 3.5794213e-06 0)
(0.08006594 2.819986e-06 0)
(0.074109274 2.2947743e-06 0)
(0.068765695 1.8103098e-06 0)
(0.063864536 1.4453023e-06 0)
(0.059418469 1.1693446e-06 0)
(0.05534606 9.0220437e-07 0)
(0.051632291 7.0334416e-07 0)
(0.048230721 5.2020347e-07 0)
(0.045114422 3.4734891e-07 0)
(0.042249606 3.0599086e-07 0)
(0.039627939 2.5264034e-07 0)
(0.037204372 3.6777154e-08 0)
(0.034982679 1.8658084e-07 0)
(0.17563395 1.2368145e-05 0)
(0.17552023 1.1061734e-05 0)
(0.158107 1.6017821e-05 0)
(0.1488666 1.0983176e-05 0)
(0.13689156 1.0299899e-05 0)
(0.12680765 8.0187802e-06 0)
(0.11699548 6.6614765e-06 0)
(0.10832476 5.2711269e-06 0)
(0.10026574 4.2836246e-06 0)
(0.093034583 3.3964125e-06 0)
(0.086401456 2.7213937e-06 0)
(0.080383818 2.1992622e-06 0)
(0.074871809 1.7213369e-06 0)
(0.069845187 1.3565816e-06 0)
(0.065241236 1.031878e-06 0)
(0.061023581 7.4158471e-07 0)
(0.057146484 6.3073983e-07 0)
(0.053598654 5.1705688e-07 0)
(0.050319064 2.0464927e-07 0)
(0.047312846 3.6404972e-07 0)
(0.22595028 2.0578037e-05 0)
(0.22580583 1.8379e-05 0)
(0.20351257 2.6676213e-05 0)
(0.19163101 1.8311418e-05 0)
(0.17624821 1.7147441e-05 0)
(0.16327772 1.3433266e-05 0)
(0.15065238 1.1137139e-05 0)
(0.13948973 8.8376482e-06 0)
(0.12911211 7.1765213e-06 0)
(0.11979794 5.7081868e-06 0)
(0.111253 4.5839267e-06 0)
(0.10350026 3.7018571e-06 0)
(0.096398767 2.9224795e-06 0)
(0.089922571 2.3179746e-06 0)
(0.083991106 1.7918073e-06 0)
(0.078557626 1.3383105e-06 0)
(0.073563192 1.1183301e-06 0)
(0.068993242 9.1307287e-07 0)
(0.06476907 4.8259389e-07 0)
(0.060897321 6.2644748e-07 0)
(0.28132817 3.1891754e-05 0)
(0.28115324 2.8513096e-05 0)
(0.25355379 4.1468042e-05 0)
(0.23877022 2.8507519e-05 0)
(0.21965137 2.6671602e-05 0)
(0.20350566 2.0986411e-05 0)
(0.18778305 1.7379096e-05 0)
(0.17387299 1.3819265e-05 0)
(0.16093742 1.1216915e-05 0)
(0.14932355 8.9416232e-06 0)
(0.13866716 7.1915183e-06 0)
(0.12899769 5.8051546e-06 0)
(0.12014017 4.6092951e-06 0)
(0.11206246 3.6713366e-06 0)
(0.10466442 2.8685189e-06 0)
(0.097887945 2.1922254e-06 0)
(0.091659499 1.8133856e-06 0)
(0.085960906 1.4768373e-06 0)
(0.080693876 9.0084264e-07 0)
(0.075866752 9.9717316e-07 0)
(0.3422763 4.7095602e-05 0)
(0.3420723 4.2154799e-05 0)
(0.30871361 6.1423761e-05 0)
(0.29074289 4.23042e-05 0)
(0.26753092 3.9556714e-05 0)
(0.24789326 3.1230741e-05 0)
(0.22876084 2.5845892e-05 0)
(0.21182124 2.0585201e-05 0)
(0.19606295 1.6705154e-05 0)
(0.18190911 1.3338496e-05 0)
(0.16891971 1.0739997e-05 0)
(0.15713171 8.667291e-06 0)
(0.14633306 6.9098196e-06 0)
(0.13648491 5.5201549e-06 0)
(0.12746569 4.3454518e-06 0)
(0.11920485 3.3713772e-06 0)
(0.11161273 2.7710209e-06 0)
(0.10466716 2.2530702e-06 0)
(0.098248142 1.4952456e-06 0)
(0.092365925 1.5061826e-06 0)
(0.40935346 6.7169595e-05 0)
(0.40912303 6.0137746e-05 0)
(0.36952487 8.7791822e-05 0)
(0.34805574 6.059688e-05 0)
(0.32036289 5.6641156e-05 0)
(0.29688611 4.4843073e-05 0)
(0.27400039 3.7101224e-05 0)
(0.2537199 2.9589832e-05 0)
(0.23484605 2.4011323e-05 0)
(0.21788595 1.9197015e-05 0)
(0.20231759 1.5471004e-05 0)
(0.18818684 1.2483468e-05 0)
(0.17524125 9.9821798e-06 0)
(0.16343475 7.9922472e-06 0)
(0.15262236 6.3265091e-06 0)
(0.14271989 4.9592225e-06 0)
(0.13361991 4.0592844e-06 0)
(0.1252958 3.2969194e-06 0)
(0.11760352 2.3110375e-06 0)
(0.11055545 2.1896644e-06 0)
(0.4831733 9.3144191e-05 0)
(0.48292025 8.3464149e-05 0)
(0.43657533 0.00012208447 0)
(0.41126856 8.4478697e-05 0)
(0.37867443 7.8947572e-05 0)
(0.35097851 6.2654762e-05 0)
(0.32396234 5.1837175e-05 0)
(0.2999976 4.1392625e-05 0)
(0.27768454 3.3591515e-05 0)
(0.25762304 2.6885101e-05 0)
(0.23920274 2.1682853e-05 0)
(0.22248006 1.749487e-05 0)
(0.20715862 1.4021641e-05 0)
(0.19318465 1.1245544e-05 0)
(0.18038762 8.9389479e-06 0)
(0.1686685 7.0597956e-06 0)
(0.15790016 5.7622706e-06 0)
(0.14805115 4.676733e-06 0)
(0.1389507 3.4027074e-06 0)
(0.13061366 3.0935087e-06 0)
(0.56440941 0.00012634102 0)
(0.56413864 0.0001133383 0)
(0.51051314 0.00016612698 0)
(0.48099957 0.00011528167 0)
(0.4430493 0.00010772565 0)
(0.41071881 8.5682075e-05 0)
(0.37915859 7.0902912e-05 0)
(0.35113132 5.668091e-05 0)
(0.32502149 4.6006886e-05 0)
(0.30153163 3.6856067e-05 0)
(0.27995644 2.9743326e-05 0)
(0.26036484 2.3999041e-05 0)
(0.2424129 1.9269249e-05 0)
(0.22603863 1.5475037e-05 0)
(0.2110437 1.2341458e-05 0)
(0.19731295 9.8005678e-06 0)
(0.1846975 7.9837733e-06 0)
(0.1731606 6.4767761e-06 0)
(0.1625018 4.838893e-06 0)
(0.15273878 4.2731296e-06 0)
(0.65380083 0.00016833458 0)
(0.65351816 0.0001511988 0)
(0.59205274 0.00022211779 0)
(0.5579314 0.00015462517 0)
(0.51413386 0.00014449294 0)
(0.47671541 0.00011516821 0)
(0.44015818 9.5337974e-05 0)
(0.40765195 7.6298434e-05 0)
(0.37735067 6.1947338e-05 0)
(0.3500704 4.9667791e-05 0)
(0.32500415 4.0105563e-05 0)
(0.30223578 3.2362747e-05 0)
(0.28136991 2.6022291e-05 0)
(0.26233601 2.0921327e-05 0)
(0.24490551 1.672801e-05 0)
(0.22894577 1.3340121e-05 0)
(0.21428395 1.0851986e-05 0)
(0.20087748 8.8011566e-06 0)
(0.18849299 6.7032368e-06 0)
(0.1771514 5.7981506e-06 0)
(0.75215804 0.0002209893 0)
(0.75186981 0.00019876348 0)
(0.68198127 0.00029269588 0)
(0.64281752 0.00020447398 0)
(0.59264364 0.00019109568 0)
(0.54964325 0.00015262759 0)
(0.50759367 0.00012641381 0)
(0.47015066 0.00010127865 0)
(0.43522262 8.2259485e-05 0)
(0.40375123 6.6005966e-05 0)
(0.37482101 5.332708e-05 0)
(0.34853365 4.3037632e-05 0)
(0.32443841 3.4647194e-05 0)
(0.3024559 2.7881022e-05 0)
(0.28232479 2.2339755e-05 0)
(0.26389359 1.7872646e-05 0)
(0.24696308 1.4524936e-05 0)
(0.23148437 1.1778052e-05 0)
(0.21718753 9.100438e-06 0)
(0.20409726 7.7528281e-06 0)
(0.86036934 0.00028651468 0)
(0.86008193 0.00025807307 0)
(0.7811655 0.00038102289 0)
(0.73648917 0.00026720642 0)
(0.67937049 0.00024976783 0)
(0.63025104 0.00019990636 0)
(0.58216833 0.00016568139 0)
(0.5392858 0.00013288686 0)
(0.49925133 0.00010798145 0)
(0.46314563 8.6712889e-05 0)
(0.42993793 7.0093484e-05 0)
(0.39975128 5.6579606e-05 0)
(0.37207551 4.5595052e-05 0)
(0.34682226 3.6719597e-05 0)
(0.32369484 2.9471927e-05 0)
(0.30252155 2.3639148e-05 0)
(0.2830741 1.9197473e-05 0)
(0.26529685 1.5565725e-05 0)
(0.24887925 1.2158065e-05 0)
(0.23385044 1.0242643e-05 0)
(0.97940772 0.00036752752 0)
(0.97912679 0.00033154977 0)
(0.89055929 0.00049087398 0)
(0.83986297 0.00034569613 0)
(0.77519039 0.00032321552 0)
(0.71936903 0.00025924651 0)
(0.66466388 0.00021503169 0)
(0.61579061 0.00017266877 0)
(0.5701218 0.00014038418 0)
(0.52889201 0.00011282182 0)
(0.49094854 9.1246904e-05 0)
(0.45644003 7.3672327e-05 0)
(0.42479283 5.9421181e-05 0)
(0.39590969 4.7887137e-05 0)
(0.36945591 3.8490618e-05 0)
(0.34523824 3.0935042e-05 0)
(0.32299645 2.51096e-05 0)
(0.30266775 2.035899e-05 0)
(0.28389645 1.6034799e-05 0)
(0.26671699 1.3395783e-05 0)
(1.1103382 0.00046711659 0)
(1.1100677 0.00042205406 0)
(1.0112116 0.00062674592 0)
(0.95394899 0.00044340768 0)
(0.8810718 0.00041470072 0)
(0.81791761 0.00033336995 0)
(0.75594913 0.0002767651 0)
(0.70048166 0.00022251164 0)
(0.64859823 0.00018102282 0)
(0.60170362 0.00014559939 0)
(0.55851684 0.00011782136 0)
(0.51921713 9.5156056e-05 0)
(0.4831634 7.6808763e-05 0)
(0.4502499 6.1937889e-05 0)
(0.42010124 4.9844225e-05 0)
(0.39250134 4.0125925e-05 0)
(0.36715502 3.2557273e-05 0)
(0.34399198 2.6398086e-05 0)
(0.3226064 2.0925073e-05 0)
(0.3030391 1.7371856e-05 0)
(1.2543258 0.00058892012 0)
(1.2540662 0.00053296037 0)
(1.1442749 0.00079397825 0)
(1.0798595 0.00056450984 0)
(0.99808487 0.00052815757 0)
(0.92691654 0.00042557137 0)
(0.85698929 0.00035367764 0)
(0.79426822 0.00028471481 0)
(0.73553328 0.000231797 0)
(0.68237754 0.00018659643 0)
(0.63338576 0.000151085 0)
(0.58877386 0.00012206288 0)
(0.54782943 9.8598053e-05 0)
(0.51043902 7.9553938e-05 0)
(0.47618389 6.4087506e-05 0)
(0.44482408 5.1660422e-05 0)
(0.41602616 4.1904992e-05 0)
(0.38971209 3.3978737e-05 0)
(0.36542047 2.7070016e-05 0)
(0.34319977 2.2365502e-05 0)
(1.4126434 0.00073720893 0)
(1.4123906 0.00066823124 0)
(1.2910146 0.00099889468 0)
(1.2188183 0.00071400718 0)
(1.1274111 0.00066831069 0)
(1.047495 0.00053983635 0)
(0.96885617 0.00044915933 0)
(0.89816238 0.00036207815 0)
(0.83187809 0.00029502553 0)
(0.77180446 0.00023771064 0)
(0.71638676 0.00019259243 0)
(0.6658847 0.00015565991 0)
(0.61951102 0.0001258216 0)
(0.57714584 0.00010157457 0)
(0.53832455 8.1900984e-05 0)
(0.5027824 6.6093052e-05 0)
(0.47014432 5.3601977e-05 0)
(0.4403245 4.3465765e-05 0)
(0.41279986 3.4765097e-05 0)
(0.38762822 2.861866e-05 0)
(1.5866812 0.00091698727 0)
(1.5864232 0.00083251211 0)
(1.4528183 0.0012489599 0)
(1.3721708 0.00089789561 0)
(1.270354 0.00084083294 0)
(1.1809024 0.00068097287 0)
(1.0927393 0.00056731689 0)
(1.0132903 0.00045800358 0)
(0.93869333 0.00037353416 0)
(0.8709796 0.00030126093 0)
(0.80845035 0.00024424729 0)
(0.75141753 0.0001975017 0)
(0.6990159 0.00015974812 0)
(0.65112108 0.00012903198 0)
(0.60722018 0.00010412523 0)
(0.5670232 8.4105072e-05 0)
(0.53010979 6.8201496e-05 0)
(0.49638662 5.5308456e-05 0)
(0.46526229 4.4375847e-05 0)
(0.436806 3.6427407e-05 0)
(1.777955 0.0011340994 0)
(1.7776698 0.001031224 0)
(1.6312059 0.0015529573 0)
(1.5413939 0.0011233422 0)
(1.42835 0.0010525088 0)
(1.3285201 0.00085477293 0)
(1.2299576 0.00071311377 0)
(1.1409039 0.00057662126 0)
(1.0571613 0.00047076379 0)
(0.98101462 0.0003800788 0)
(0.91061778 0.00030837932 0)
(0.84634494 0.00024949417 0)
(0.78725032 0.00020193552 0)
(0.73320768 0.00016319559 0)
(0.68365387 0.00013179181 0)
(0.6382735 0.00010653723 0)
(0.59659728 8.6385638e-05 0)
(0.55852492 7.0060876e-05 0)
(0.52338938 5.6351869e-05 0)
(0.49127394 4.6158733e-05 0)
(1.9881164 0.0013953551 0)
(1.9877676 0.0012706806 0)
(1.8278406 0.0019211873 0)
(1.7281081 0.001398895 0)
(1.6029804 0.0013114462 0)
(1.4918733 0.0010681973 0)
(1.3819727 0.00089254189 0)
(1.2823947 0.00072293447 0)
(1.1885992 0.0005908969 0)
(1.1031507 0.00047761673 0)
(1.0240539 0.00038783644 0)
(0.95175675 0.00031397238 0)
(0.88523104 0.00025429619 0)
(0.8243524 0.00020562556 0)
(0.76850575 0.00016617312 0)
(0.71735082 0.00013442312 0)
(0.67036563 0.00010899472 0)
(0.62744397 8.8405652e-05 0)
(0.58783525 7.1248935e-05 0)
(0.55164003 5.8262856e-05 0)
(2.218962 0.0017086587 0)
(2.2184947 0.0015582025 0)
(2.0445391 0.0023656858 0)
(1.934088 0.0017347239 0)
(1.7959839 0.0016272994 0)
(1.6726449 0.0013295977 0)
(1.550402 0.0011128162 0)
(1.4393069 0.00090299826 0)
(1.334473 0.00073901213 0)
(1.2387728 0.00059808091 0)
(1.1500613 0.00048609728 0)
(1.0688737 0.00039379509 0)
(0.99409876 0.00031917546 0)
(0.92561863 0.00025823894 0)
(0.86276525 0.00020883158 0)
(0.80517479 0.00016903767 0)
(0.75226878 0.0001370644 0)
(0.70393679 0.00011118495 0)
(0.65933599 8.9750838e-05 0)
(0.61858836 7.3297774e-05 0)
(2.4724435 0.0020831616 0)
(2.4717788 0.0019022565 0)
(2.2832829 0.0029004627 0)
(2.1612748 0.0021428989 0)
(2.0092692 0.002011549 0)
(1.8726887 0.0016489699 0)
(1.7370337 0.0013826129 0)
(1.6133531 0.0011241236 0)
(1.4964132 0.00092126491 0)
(1.389425 0.00074658745 0)
(1.2900954 0.00060740562 0)
(1.1990628 0.00049245914 0)
(1.1151328 0.0003994486 0)
(1.0382006 0.00032338984 0)
(0.96754473 0.00026169212 0)
(0.90278006 0.00021194886 0)
(0.843268 0.00017187065 0)
(0.78889628 0.0001394369 0)
(0.73872053 0.00011270219 0)
(0.69288921 9.1949592e-05 0)
(2.7506773 0.0025294149 0)
(2.7497059 0.0023125893 0)
(2.5462295 0.0035417552 0)
(2.4117882 0.002637707 0)
(2.2449289 0.0024777974 0)
(2.0940439 0.0020382512 0)
(1.9438418 0.0017123393 0)
(1.8064299 0.0013951267 0)
(1.6762309 0.0011451067 0)
(1.5568272 0.00092935271 0)
(1.4457816 0.00075693367 0)
(1.3438533 0.00061423774 0)
(1.2497672 0.00049863748 0)
(1.163439 0.00040396811 0)
(1.0840945 0.00032711769 0)
(1.0113308 0.00026508863 0)
(0.94444558 0.0002149864 0)
(0.88332822 0.00017444197 0)
(0.82692277 0.00014114443 0)
(0.77541045 0.00011506754 0)
(3.0559537 0.0030595411 0)
(3.0545287 0.0028003874 0)
(2.8357227 0.0043082983 0)
(2.6879387 0.0032360129 0)
(2.5052527 0.0030421321 0)
(2.3389504 0.0025116628 0)
(2.1730021 0.0021144574 0)
(2.0206348 0.0017266131 0)
(1.8759355 0.0014195397 0)
(1.7428929 0.0011539165 0)
(1.6189326 0.00094097632 0)
(1.5049552 0.0007643475 0)
(1.3996084 0.00062105301 0)
(1.3028383 0.00050351832 0)
(1.2138196 0.00040801552 0)
(1.1321366 0.00033083276 0)
(1.05702 0.00026834944 0)
(0.98836566 0.00021777887 0)
(0.92499515 0.00017636373 0)
(0.86713029 0.00014369741 0)
(3.3907453 0.0036873959 0)
(3.3886745 0.0033784278 0)
(3.1543028 0.0052215995 0)
(2.9922396 0.0039576609 0)
(2.7927413 0.0037235101 0)
(2.6098634 0.0030861046 0)
(2.4269089 0.0026038486 0)
(2.2582838 0.002131321 0)
(2.0977528 0.0017554228 0)
(1.9497482 0.0014294122 0)
(1.811568 0.0011671853 0)
(1.6842781 0.00094914972 0)
(1.5664544 0.0007719657 0)
(1.4580854 0.00062638531 0)
(1.3582979 0.00050795311 0)
(1.2666699 0.00041210604 0)
(1.182363 0.00033434707 0)
(1.1052849 0.00027139516 0)
(1.0341239 0.000219946 0)
(0.96915161 0.00017913372 0)
(3.7577147 0.0044287444 0)
(3.7547516 0.0040612515 0)
(3.5047151 0.0063062143 0)
(3.3274182 0.0048259259 0)
(3.1101195 0.0045442157 0)
(2.9094688 0.0037816051 0)
(2.7081916 0.0031982474 0)
(2.5219296 0.0026245109 0)
(2.3441443 0.0021658261 0)
(2.1797515 0.001766882 0)
(2.025935 0.0014448471 0)
(1.8839521 0.0011763915 0)
(1.7523153 0.00095781374 0)
(1.63107 0.00077788978 0)
(1.5192999 0.00063131299 0)
(1.4165859 0.00051250321 0)
(1.3220177 0.00041591883 0)
(1.2355235 0.00033769179 0)
(1.1556458 0.0002738489 0)
(1.0827179 0.00022297257 0)
(4.1597197 0.0053014086 0)
(4.1555547 0.004865317 0)
(3.8899168 0.0075900002 0)
(3.6964261 0.0058680029 0)
(3.460349 0.0055303394 0)
(3.2406982 0.0046218289 0)
(3.0197315 0.0039187264 0)
(2.8143797 0.0032244293 0)
(2.6178272 0.0026664529 0)
(2.4355146 0.002179654 0)
(2.2645291 0.0017852149 0)
(2.1063494 0.0014554944 0)
(1.9594354 0.0011864517 0)
(1.8239068 0.00096454209 0)
(1.698811 0.0007834658 0)
(1.583743 0.00063644337 0)
(1.4777196 0.00051668404 0)
(1.3806995 0.00041962875 0)
(1.2910669 0.00034048815 0)
(1.2092311 0.00027718789 0)
(4.5998155 0.0063254063 0)
(4.5940676 0.0058091741 0)
(4.3130802 0.0091043458 0)
(4.1024471 0.0071155352 0)
(3.8466395 0.0067123341 0)
(3.6067424 0.0056346509 0)
(3.3646781 0.0047902628 0)
(3.1387151 0.0039528307 0)
(2.921794 0.003276123 0)
(2.719924 0.0026837807 0)
(2.5301176 0.0022019006 0)
(2.3541079 0.0017978991 0)
(2.1903166 0.0014674504 0)
(2.0389587 0.0011942982 0)
(1.8990537 0.00097099624 0)
(1.7702258 0.00078935148 0)
(1.6514184 0.00064109539 0)
(1.542633 0.00052085294 0)
(1.4420833 0.00042284432 0)
(1.3502709 0.00034421461 0)
(5.0812544 0.0075230248 0)
(5.0734637 0.0069136073 0)
(4.777593 0.010884335 0)
(4.5489026 0.0086051604 0)
(4.2724575 0.0081255817 0)
(4.0110638 0.00685279 0)
(3.7464643 0.0058423606 0)
(3.4983078 0.0048355917 0)
(3.2593328 0.0040173432 0)
(3.0361625 0.0032985583 0)
(2.8257617 0.0027113386 0)
(2.6301548 0.0022174753 0)
(2.4477434 0.0018124534 0)
(2.2788617 0.0014768696 0)
(2.1225137 0.0012019603 0)
(1.97837 0.00097788605 0)
(1.845302 0.00079462751 0)
(1.7233698 0.00064585682 0)
(1.6106031 0.0005245926 0)
(1.5076168 0.0004270632 0)
(5.6074788 0.0089188521 0)
(5.5971014 0.0082017865 0)
(5.2870514 0.012968836 0)
(5.0394526 0.010379061 0)
(4.7415316 0.0098110223 0)
(4.4574058 0.0083145061 0)
(4.1688196 0.0071097659 0)
(3.8968373 0.0059033914 0)
(3.6340463 0.0049169526 0)
(3.3877308 0.0040471236 0)
(3.1548402 0.003333329 0)
(2.9377316 0.0027310059 0)
(2.7348079 0.0022356042 0)
(2.5465516 0.0018240927 0)
(2.3719653 0.0014862115 0)
(2.2107884 0.001210207 0)
(2.0618227 0.00098400557 0)
(1.9252061 0.00080016961 0)
(1.7987716 0.0006502628 0)
(1.6832712 0.00052944705 0)
(6.1821079 0.010539686 0)
(6.1685153 0.0096993699 0)
(5.8452466 0.015400451 0)
(5.5779901 0.012485477 0)
(5.2578525 0.011815759 0)
(4.9497976 0.01006434 0)
(4.6357795 0.0086332355 0)
(4.3383043 0.0071924943 0)
(4.0498691 0.0060068721 0)
(3.7784676 0.0049571532 0)
(3.5210725 0.0040916743 0)
(3.2804183 0.0033587583 0)
(3.0549364 0.0027540518 0)
(2.8452902 0.0022503728 0)
(2.6504996 0.0018357744 0)
(2.4703986 0.0014963059 0)
(2.3037246 0.0012174845 0)
(2.1507163 0.00099059161 0)
(2.0089971 0.00080543676 0)
(1.879485 0.00065595094 0)
(6.808916 0.012414339 0)
(6.7913992 0.011434611 0)
(6.4561405 0.018225325 0)
(6.1686272 0.014979128 0)
(5.8256659 0.014193679 0)
(5.4925539 0.012153897 0)
(5.1516907 0.01046039 0)
(4.8270407 0.0087456018 0)
(4.511082 0.0073249389 0)
(4.2125679 0.0060616549 0)
(3.9285393 0.005014915 0)
(3.6621578 0.0041251533 0)
(3.4119151 0.0033885497 0)
(3.1786936 0.002773209 0)
(2.9615525 0.0022653117 0)
(2.7604524 0.0018483976 0)
(2.5740728 0.001505184 0)
(2.4027813 0.0012254781 0)
(2.2439796 0.0009969844 0)
(2.0987857 0.00081222539 0)
(7.491798 0.014573229 0)
(7.4695803 0.013438405 0)
(7.1238284 0.021492728 0)
(6.8156692 0.017921472 0)
(6.4494548 0.017005967 0)
(6.0902642 0.014642621 0)
(5.721208 0.012646585 0)
(5.3677135 0.010612803 0)
(5.0223222 0.0089158523 0)
(4.6945976 0.0073998795 0)
(4.3817021 0.0061371803 0)
(4.0872781 0.0050595441 0)
(3.8099152 0.0041641547 0)
(3.5507589 0.0034138191 0)
(3.3089338 0.0027926622 0)
(3.0845648 0.0022813964 0)
(2.8762834 0.0018594935 0)
(2.6846188 0.0015150843 0)
(2.5067406 0.0012333551 0)
(2.3440062 0.0010052372 0)
(8.2347207 0.017047801 0)
(8.2069809 0.015744333 0)
(7.852486 0.025254401 0)
(7.5235731 0.021380697 0)
(7.1339073 0.020321525 0)
(6.74777 0.017598537 0)
(6.349281 0.015255829 0)
(5.9653195 0.012852562 0)
(5.5885846 0.010832195 0)
(5.2295026 0.0090183281 0)
(4.8854173 0.0074991534 0)
(4.5605111 0.0061971151 0)
(4.253516 0.0051110489 0)
(3.9658901 0.0041978709 0)
(3.6968553 0.0034394968 0)
(3.4467442 0.002813477 0)
(3.2141543 0.0022955582 0)
(2.9998152 0.0018719805 0)
(2.8006547 0.0015249259 0)
(2.6183163 0.0012435597 0)
(9.0416563 0.019869648 0)
(9.0075628 0.018388619 0)
(8.6462951 0.029563587 0)
(8.2968853 0.025431302 0)
(7.8838649 0.024217097 0)
(7.4701243 0.021098854 0)
(7.0411249 0.01836163 0)
(6.6251668 0.015532757 0)
(6.215214 0.013135546 0)
(5.8226081 0.010971879 0)
(5.4449434 0.009149161 0)
(5.0870066 0.007579908 0)
(4.7477235 0.0062654849 0)
(4.4289214 0.0051563423 0)
(4.1299568 0.0042320706 0)
(3.8514217 0.0034667466 0)
(3.5918963 0.0028318616 0)
(3.3523566 0.0023115504 0)
(3.1294817 0.0018844308 0)
(2.925255 0.0015377377 0)
(9.9164922 0.023069376 0)
(9.8752513 0.021410088 0)
(9.5093455 0.034473743 0)
(9.1401532 0.030153111 0)
(8.7042445 0.028777088 0)
(8.2625272 0.025230365 0)
(7.8021693 0.02204775 0)
(7.3528385 0.018731667 0)
(6.9078803 0.015897611 0)
(6.4796058 0.013324982 0)
(6.0659379 0.011144372 0)
(5.6723372 0.009257979 0)
(5.2979827 0.0076708712 0)
(4.9451354 0.0063265108 0)
(4.6133296 0.0052021266 0)
(4.3034767 0.004268033 0)
(4.014162 0.0034909153 0)
(3.7466609 0.0028525885 0)
(3.4973996 0.0023274644 0)
(3.2687638 0.0019007165 0)
(10.862915 0.026675141 0)
(10.813831 0.024850204 0)
(10.445506 0.040036815 0)
(10.057804 0.035629542 0)
(9.5999247 0.034092773 0)
(9.1302275 0.03008944 0)
(8.6379777 0.026408676 0)
(8.1541286 0.02253886 0)
(7.6725313 0.019201349 0)
(7.2065213 0.016152914 0)
(6.7544379 0.013552096 0)
(6.3224902 0.011290678 0)
(5.9101796 0.0093789896 0)
(5.5202728 0.0077530922 0)
(5.1525333 0.0063879202 0)
(4.8082604 0.0052498138 0)
(4.4860727 0.0043000736 0)
(4.1876066 0.0035180105 0)
(3.9090358 0.0028730982 0)
(3.6532196 0.0023483721 0)
(11.88426 0.03071095 0)
(11.826808 0.028753573 0)
(11.458264 0.046301119 0)
(11.053987 0.041944936 0)
(10.575587 0.04026086 0)
(10.078382 0.035781452 0)
(9.5541266 0.031549707 0)
(9.0349409 0.02705579 0)
(8.5153135 0.023141946 0)
(8.0096545 0.019542989 0)
(7.5168175 0.016451115 0)
(7.0438411 0.013748026 0)
(6.5906276 0.011451348 0)
(6.1605308 0.009489518 0)
(5.7536025 0.0078354142 0)
(5.3716096 0.0064512844 0)
(5.013239 0.0052924882 0)
(4.6805593 0.0043356914 0)
(4.3694965 0.0035445974 0)
(4.0834664 0.0029001295 0)
(12.983326 0.035194727 0)
(12.917222 0.033168411 0)
(12.550514 0.053309374 0)
(12.132368 0.049180338 0)
(11.635498 0.047381104 0)
(11.111855 0.042419275 0)
(10.55603 0.037586323 0)
(10.00114 0.03239596 0)
(9.4424471 0.027827525 0)
(8.8954798 0.023595651 0)
(8.359712 0.019933002 0)
(7.8430983 0.016712132 0)
(7.3460304 0.013960624 0)
(6.8725416 0.011599349 0)
(6.4230398 0.0095995957 0)
(5.9998506 0.0079195856 0)
(5.6017734 0.0065082146 0)
(5.2313901 0.0053394449 0)
(4.8843915 0.0043702889 0)
(4.5648439 0.0035797118 0)
(14.162143 0.040136366 0)
(14.087414 0.038143082 0)
(13.724371 0.061097423 0)
(13.295836 0.057407765 0)
(12.783218 0.055552696 0)
(12.234949 0.050120571 0)
(11.648691 0.044642568 0)
(11.058331 0.038684294 0)
(10.460038 0.033379275 0)
(9.870493 0.028425203 0)
(9.2898946 0.02410325 0)
(8.7272072 0.020278572 0)
(8.1834119 0.016992155 0)
(7.6633233 0.014157777 0)
(7.1677847 0.011745953 0)
(6.6997844 0.0097111746 0)
(6.2582879 0.0079954718 0)
(5.8464845 0.0065701569 0)
(5.4598505 0.0053845473 0)
(5.10321 0.0044160103 0)
(15.421688 0.045535867 0)
(15.338717 0.043725912 0)
(14.98106 0.069688348 0)
(14.546025 0.066687537 0)
(14.021215 0.064868421 0)
(13.451046 0.059003258 0)
(12.836365 0.05284792 0)
(12.211557 0.046055374 0)
(11.57381 0.039930782 0)
(10.940976 0.03415992 0)
(10.314086 0.029082016 0)
(9.7031979 0.024557544 0)
(9.1099964 0.020645334 0)
(8.5401914 0.017253155 0)
(7.9951508 0.014352008 0)
(7.4786447 0.01189333 0)
(6.9898709 0.0098120472 0)
(6.5327338 0.008077075 0)
(6.1025266 0.0066289623 0)
(5.7049538 0.0054441147 0)
(16.761538 0.051381945 0)
(16.671082 0.049975161 0)
(16.320441 0.079091934 0)
(15.883047 0.077062002 0)
(15.350401 0.075406955 0)
(14.762139 0.069178708 0)
(14.122108 0.062332267 0)
(13.464871 0.054649939 0)
(12.788725 0.047625912 0)
(12.112669 0.040941161 0)
(11.438667 0.035004101 0)
(10.777951 0.029674558 0)
(10.13302 0.02503476 0)
(9.5106095 0.020988399 0)
(8.9127132 0.017508878 0)
(8.3440167 0.014545717 0)
(7.8040319 0.012026822 0)
(7.2975009 0.0099192386 0)
(6.8195795 0.0081536259 0)
(6.3769924 0.006706479 0)
(18.179447 0.057651171 0)
(18.082615 0.056940644 0)
(17.740573 0.089308431 0)
(17.305044 0.088552182 0)
(16.769559 0.087224272 0)
(16.168254 0.080742079 0)
(15.507189 0.073218399 0)
(14.820771 0.064609075 0)
(14.108457 0.056614722 0)
(13.390303 0.048920852 0)
(12.669274 0.042017763 0)
(11.957845 0.035770204 0)
(11.259447 0.03029079 0)
(10.581959 0.025482063 0)
(9.9281265 0.021322624 0)
(9.3036981 0.017761917 0)
(8.7085984 0.014721343 0)
(8.1485484 0.01216701 0)
(7.6186293 0.010018593 0)
(7.1267446 0.0082542463 0)
(19.670821 0.064307206 0)
(19.569007 0.064662287 0)
(19.237171 0.10032147 0)
(18.807664 0.10115507 0)
(18.274684 0.10034394 0)
(17.666763 0.093760099 0)
(16.990353 0.085611653 0)
(16.279464 0.07606541 0)
(15.53469 0.067046472 0)
(14.776948 0.058256513 0)
(14.010223 0.050281555 0)
(13.248261 0.042998516 0)
(12.495531 0.036558984 0)
(11.761193 0.030868684 0)
(11.048843 0.025915217 0)
(10.365476 0.021650722 0)
(9.7115448 0.017991309 0)
(9.0939105 0.014903627 0)
(8.5076639 0.012295377 0)
(7.9620678 0.010148683 0)
(21.228066 0.071299051 0)
(21.122865 0.073171054 0)
(20.802923 0.11209882 0)
(20.383424 0.11484391 0)
(19.858548 0.11475082 0)
(19.251313 0.10825669 0)
(18.566924 0.099584933 0)
(17.837933 0.08913079 0)
(17.066203 0.079058907 0)
(16.273156 0.069102877 0)
(15.463724 0.059958245 0)
(14.652889 0.051522984 0)
(13.846231 0.043997862 0)
(13.054305 0.037297762 0)
(12.281693 0.031424564 0)
(11.536787 0.026336886 0)
(10.820723 0.021947738 0)
(10.141683 0.018226612 0)
(9.4948816 0.015068477 0)
(8.8911423 0.01246268 0)
(22.839762 0.078566676 0)
(22.732893 0.08247277 0)
(22.426655 0.12456417 0)
(22.020941 0.12957027 0)
(21.509883 0.13038945 0)
(20.910913 0.12419954 0)
(20.227789 0.11516018 0)
(19.488802 0.10388001 0)
(18.697726 0.092762833 0)
(17.875839 0.081598841 0)
(17.028829 0.071204563 0)
(16.172768 0.061509027 0)
(15.314357 0.052773822 0)
(14.465627 0.044930756 0)
(13.63225 0.038002934 0)
(12.824207 0.031960742 0)
(12.043451 0.026717445 0)
(11.299701 0.022248769 0)
(10.588438 0.018436639 0)
(9.9222773 0.015282171 0)
(24.489636 0.086132651 0)
(24.382887 0.092523708 0)
(24.092305 0.1376099 0)
(23.703983 0.14522728 0)
(23.212367 0.147159 0)
(22.62951 0.14149479 0)
(21.957839 0.13228747 0)
(21.219021 0.12032846 0)
(20.418554 0.10822126 0)
(19.576879 0.095848605 0)
(18.700082 0.084155313 0)
(17.805026 0.073111445 0)
(16.899432 0.063051805 0)
(15.99681 0.053934612 0)
(15.103992 0.045812944 0)
(14.232706 0.038675923 0)
(13.385903 0.032442137 0)
(12.575043 0.027098309 0)
(11.796055 0.022513654 0)
(11.063605 0.018707262 0)
(26.155132 0.093776677 0)
(26.050478 0.10349202 0)
(25.777661 0.15106786 0)
(25.410269 0.16164951 0)
(24.943529 0.16490912 0)
(24.384689 0.15998035 0)
(23.734978 0.15083339 0)
(23.008456 0.13840476 0)
(22.210996 0.12542291 0)
(21.36148 0.11189608 0)
(20.465867 0.098900366 0)
(19.541278 0.086455105 0)
(18.596194 0.074979979 0)
(17.645472 0.064470269 0)
(16.697091 0.055019465 0)
(15.764645 0.046644147 0)
(14.852238 0.039275301 0)
(13.973306 0.032917298 0)
(13.124442 0.027428015 0)
(12.322618 0.022852685 0)
(27.805856 0.10138023 0)
(27.705452 0.11503429 0)
(27.452786 0.16529911 0)
(27.109954 0.17852656 0)
(26.673395 0.18337143 0)
(26.146418 0.17941684 0)
(25.528907 0.17056666 0)
(24.828537 0.15792485 0)
(24.048763 0.14425148 0)
(23.206379 0.12969275 0)
(22.306507 0.11545345 0)
(21.365712 0.10160712 0)
(20.392738 0.088666372 0)
(19.403453 0.076674095 0)
(18.406839 0.065775568 0)
(17.418364 0.056025189 0)
(16.443411 0.047375551 0)
(15.497594 0.039857583 0)
(14.578428 0.03332066 0)
(13.70547 0.027846912 0)
(29.401856 0.10898372 0)
(29.307889 0.1268768 0)
(29.077985 0.17938647 0)
(28.763725 0.19601836 0)
(28.362836 0.2023504 0)
(27.875629 0.19948609 0)
(27.300382 0.19114371 0)
(26.640712 0.17856526 0)
(25.895507 0.16445089 0)
(25.078111 0.14905997 0)
(24.19231 0.13371285 0)
(23.252966 0.11853944 0)
(22.268346 0.10414564 0)
(21.254698 0.090630025 0)
(20.221642 0.078200336 0)
(19.18636 0.066959983 0)
(18.155545 0.056894396 0)
(17.147122 0.048072451 0)
(16.159807 0.040339731 0)
(15.215981 0.033828997 0)
(30.89107 0.11635789 0)
(30.806082 0.13936757 0)
(30.601769 0.19313335 0)
(30.320698 0.21339042 0)
(29.96171 0.22138318 0)
(29.522733 0.21975898 0)
(29.000532 0.21211041 0)
(28.39544 0.19984035 0)
(27.703854 0.18559114 0)
(26.931725 0.16964783 0)
(26.081916 0.15341597 0)
(25.166144 0.13708259 0)
(24.191259 0.12133511 0)
(23.172895 0.10633067 0)
(22.120668 0.092346111 0)
(21.053037 0.079544437 0)
(19.977857 0.067956217 0)
(18.915356 0.057701945 0)
(17.865713 0.048630438 0)
(16.854287 0.04094194 0)
(32.20655 0.12340555 0)
(32.133578 0.15171768 0)
(31.958703 0.20667276 0)
(31.716781 0.23011778 0)
(31.407558 0.23986845 0)
(31.026797 0.23962138 0)
(30.569786 0.23284179 0)
(30.034109 0.2211091 0)
(29.414578 0.20702681 0)
(28.710581 0.19089261 0)
(27.921617 0.17409182 0)
(27.05552 0.15687414 0)
(26.116855 0.13998199 0)
(25.119251 0.12362737 0)
(24.071382 0.108154 0)
(22.99216 0.093791784 0)
(21.890182 0.080627943 0)
(20.787697 0.068849441 0)
(19.686532 0.05831773 0)
(18.614989 0.049320353 0)
(33.263473 0.12993548 0)
(33.207128 0.16337279 0)
(33.068433 0.21905417 0)
(32.875143 0.24567764 0)