/*--------------------------------*- C++ -*----------------------------------*\
| =========                 |                                                 |
| \\      /  F ield         | OpenFOAM: The Open Source CFD Toolbox           |
|  \\    /   O peration     | Version:  2406                                  |
|   \\  /    A nd           | Website:  www.openfoam.com                      |
|    \\/     M anipulation  |                                                 |
\*---------------------------------------------------------------------------*/
FoamFile
{
    version     2.0;
    format      ascii;
    arch        "LSB;label=32;scalar=64";
    class       volVectorField;
    location    "100";
    object      wallShearStress;
}
// * * * * * * * * * * * * * * * * * * * * * * * * * * * * * * * * * * * * * //

dimensions      [0 2 -2 0 0 0 0];

internalField   uniform (0 0 0);

boundaryField
{
    inlet
    {
        type            calculated;
        value           uniform (0 0 0);
    }
    topWall
    {
        type            symmetry;
    }
    jet
    {
        type            calculated;
        value           uniform (0 0 0);
    }
    outlet
    {
        type            calculated;
        value           uniform (0 0 0);
    }
    bottomWall
    {
        type            calculated;
        value           nonuniform List<vector> 
380
(
(-4.9887323 -0.00010447843 0)
(-4.9859157 -5.1040507e-05 0)
(-4.4851544 -7.1338361e-05 0)
(-4.2224955 -4.9230032e-05 0)
(-3.8811359 -4.7779e-05 0)
(-3.5945602 -3.1455997e-05 0)
(-3.3159306 -2.7902386e-05 0)
(-3.0700165 -2.0319255e-05 0)
(-2.8415796 -1.7027417e-05 0)
(-2.6367391 -1.2074134e-05 0)
(-2.4488946 -8.8332578e-06 0)
(-2.2785168 -7.4283659e-06 0)
(-2.1224656 -3.7425472e-06 0)
(-1.9801611 -1.7433653e-06 0)
(-1.849816 1.0083389e-06 0)
(-1.7303951 4.8340074e-06 0)
(-1.6206033 2.5250968e-06 0)
(-1.5201215 1.7141168e-06 0)
(-1.4272259 1.0993016e-05 0)
(-1.3420596 -3.2578389e-07 0)
(-1.2739013 1.0296599e-05 6.7759912e-26)
(-1.2217217 -2.2691517e-06 6.8856112e-26)
(-1.1772652 4.2265846e-06 1.4137536e-25)
(-1.1390629 3.9006871e-06 -2.9512846e-25)
(-1.105794 2.5330402e-06 0)
(-1.0765395 3.8131315e-06 0)
(-1.0505559 2.0695291e-06 0)
(-1.0273877 5.1551622e-06 -6.5253628e-25)
(-1.0065462 2.7922554e-06 6.7526831e-25)
(-0.98768025 1.4464759e-05 6.9015122e-25)
(-0.97050591 -7.8165149e-06 -1.4242419e-24)
(-0.95483517 1.5276203e-05 1.4654814e-24)
(-0.94047861 -9.195838e-06 -7.5615245e-25)
(-0.9272529 -1.3622244e-07 0)
(-0.91502266 4.2597558e-06 0)
(-0.90368306 1.7927648e-06 -1.6426947e-24)
(-0.89312569 4.8546193e-07 1.6999203e-24)
(-0.88328417 -2.9664006e-06 1.7438214e-24)
(-0.87409587 1.6422981e-06 -1.8045699e-24)
(-0.86548137 -2.5219625e-06 -0)
(-0.85737564 -3.2660043e-06 -0)
(-0.84973249 1.4425823e-05 1.9693746e-24)
(-0.84250427 -2.0028586e-05 -2.0379805e-24)
(-0.83565282 1.4725918e-05 0)
(-0.82913795 -1.2703969e-05 -2.1614498e-24)
(-0.82292694 -2.1502117e-06 2.236747e-24)
(-0.81699384 -1.9332532e-06 0)
(-0.81131597 7.2554946e-07 0)
(-0.80586798 -1.1609336e-07 0)
(-0.80062631 4.8837311e-07 0)
(-0.79556739 -2.1563502e-06 0)
(-0.79066913 1.8595691e-05 0)
(-0.78591457 -2.2711818e-05 -2.7911124e-24)
(-0.78128847 6.7073209e-06 2.8883446e-24)
(-0.77677815 -9.6494125e-06 -2.9800671e-24)
(-0.77236962 -1.2653971e-06 3.083882e-24)
(-0.76805057 -1.1373869e-06 0)
(-0.76381056 -9.3915649e-07 0)
(-0.75963907 -8.9176642e-07 0)
(-0.75552757 -6.536152e-06 0)
(-0.75147183 1.3635018e-06 0)
(-0.7474641 -4.4180566e-06 0)
(-0.74349797 -1.0871244e-06 0)
(-0.73957225 1.7238857e-05 0)
(-0.7356741 -2.4193642e-05 0)
(-0.73181922 1.9800355e-05 0)
(-0.72798405 -1.2711754e-05 8.9391802e-24)
(-0.72419518 -2.1742518e-06 -9.2505891e-24)
(-0.72061225 1.1186579e-06 1.0055858e-23)
(-0.71706672 6.5370225e-07 -1.0202724e-23)
(-0.71335434 3.0173093e-06 0)
(-0.70954505 -2.8295562e-06 0)
(-0.70565806 1.0401594e-06 0)
(-0.7016862 -3.0422304e-06 0)
(-0.697629 -2.1559471e-06 0)
(-0.69348525 -3.6449064e-07 0)
(-0.68925545 -3.1742455e-06 -1.1377038e-23)
(-0.68493625 2.0234412e-05 1.1543201e-23)
(-0.68052604 -2.1473393e-05 0)
(-0.67602316 8.5266871e-06 0)
(-0.67142484 -9.7590889e-06 0)
(-0.66672839 1.6957489e-05 0)
(-0.66193298 -2.1905703e-05 0)
(-0.65703601 1.9335478e-05 0)
(-0.65203559 -2.1535177e-05 0)
(-0.64693015 1.7326284e-05 0)
(-0.64171737 -1.1524714e-05 -1.3420647e-23)
(-0.6363966 1.3916679e-05 1.3616657e-23)
(-0.6309662 -7.1857637e-06 -0)
(-0.62542551 2.0039417e-06 1.4135152e-23)
(-0.61977323 1.121002e-05 -1.4341596e-23)
(-0.6140088 7.4606958e-06 0)
(-0.60813229 8.803145e-06 0)
(-0.60214282 6.0251389e-06 0)
(-0.59604072 7.2616208e-06 0)
(-0.58982654 4.2229185e-06 0)
(-0.58350094 7.4471404e-06 0)
(-0.57706374 5.1333664e-06 0)
(-0.57051619 9.7727767e-06 0)
(-0.56386034 5.1271617e-06 0)
(-0.55709727 1.1672884e-05 0)
(-0.55022886 7.1892419e-06 0)
(-0.5432564 1.8843047e-05 0)
(-0.5361829 2.3083036e-06 0)
(-0.52901 2.3906246e-05 0)
(-0.52174145 1.4744747e-06 0)
(-0.51437914 2.8105215e-05 0)
(-0.50692762 -6.4551901e-06 0)
(-0.49938828 3.3027107e-05 0)
(-0.49176521 -6.1184855e-06 0)
(-0.48406318 2.7210049e-05 0)
(-0.4762854 -6.5288297e-06 0)
(-0.46843498 3.1411635e-05 0)
(-0.46051655 -6.7557856e-06 0)
(-0.4525357 2.5547949e-05 0)
(-0.4444954 -1.1003801e-06 0)
(-0.43640043 9.2170428e-06 0)
(-0.42825712 1.2920582e-05 0)
(-0.42006818 1.4971843e-05 0)
(-0.41183994 1.3753272e-05 0)
(-0.40357746 1.6132342e-05 0)
(-0.3952852 1.441291e-05 0)
(-0.38697014 1.120566e-05 0)
(-0.37863656 1.4238568e-05 -2.6507591e-23)
(-0.37028875 1.1159447e-05 2.6894738e-23)
(-0.36193247 1.511398e-05 0)
(-0.35357376 1.189044e-05 -2.8025677e-23)
(-0.34521772 1.2982333e-05 5.698326e-23)
(-0.33686982 1.7695413e-05 -5.8044247e-23)
(-0.32853382 1.4415603e-05 5.9121814e-23)
(-0.32021788 3.0631383e-05 1.1461621e-25)
(-0.31192535 -2.5054898e-07 -3.0605822e-23)
(-0.30366217 2.9757212e-05 0)
(-0.29543283 -1.0589501e-06 3.185656e-23)
(-0.2872426 2.8976953e-05 -6.4758881e-23)
(-0.27909599 -9.228219e-07 3.291081e-23)
(-0.27099812 2.7688672e-05 0)
(-0.26295287 -8.1547093e-07 0)
(-0.25496668 2.1588292e-05 3.4844364e-23)
(-0.24704113 9.6531121e-06 -3.5353273e-23)
(-0.2391815 2.6375233e-05 -3.6099843e-23)
(-0.23139317 4.9761082e-06 3.6627089e-23)
(-0.2236784 1.3483296e-05 0)
(-0.21604401 1.8614509e-05 3.8048693e-23)
(-0.20849022 1.6211657e-05 1.1152049e-25)
(-0.2010232 1.5127558e-05 -3.9281366e-23)
(-0.19364281 1.3285418e-05 0)
(-0.18635443 1.3510522e-05 0)
(-0.17916143 1.118988e-05 0)
(-0.17206556 1.2209628e-05 0)
(-0.16506862 1.0800942e-05 0)
(-0.15817311 1.1497163e-05 -4.3643808e-23)
(-0.15138329 9.5525997e-06 -1.0451494e-25)
(-0.14469891 1.2202159e-05 4.5033997e-23)
(-0.13812297 1.1761136e-05 4.5899297e-23)
(-0.13165461 1.146208e-05 1.0142698e-25)
(-0.12529918 1.9999166e-05 -4.7352714e-23)
(-0.11905557 1.3487547e-06 -4.8244949e-23)
(-0.1129257 1.7974063e-05 4.8949562e-23)
(-0.10690958 7.4064158e-07 0)
(-0.10100866 1.6188198e-05 0)
(-0.095223127 4.7465085e-07 0)
(-0.089553514 1.6515975e-05 -5.2365011e-23)
(-0.08399998 2.2051723e-06 5.3129808e-23)
(-0.078562753 1.7305145e-05 -5.4090385e-23)
(-0.073241658 4.1509341e-06 5.4880382e-23)
(-0.068036768 1.8151758e-05 0)
(-0.062947407 6.3508051e-06 0)
(-0.057972708 9.71368e-06 0)
(-0.053113542 9.007641e-06 -5.8607688e-23)
(-0.048369045 8.401213e-06 1.1901109e-22)
(-0.043736734 8.5038745e-06 -1.2091711e-22)
(-0.039217921 8.62165e-06 6.1383578e-23)
(-0.034804657 8.2063764e-06 -6.2443356e-23)
(-0.030509051 8.0731288e-06 -7.9330151e-26)
(-0.02630779 8.1720365e-06 -7.8495145e-26)
(-0.02222833 8.1352903e-06 -7.7377858e-26)
(-0.018198699 7.8070715e-06 6.6414165e-23)
(-0.014265485 7.236809e-06 0)
(-0.010185626 6.7644253e-06 6.8599421e-23)
(-0.0069133012 8.9275015e-06 -1.2151455e-22)
(-0.0046993271 2.759903e-06 0)
(-0.0025459514 1.2504991e-05 -1.2174672e-22)
(-0.00043390701 4.1435183e-06 1.2174673e-22)
(0.0016367437 1.1593448e-05 1.2190172e-22)
(0.0036832444 4.0115527e-06 -1.2190174e-22)
(0.0056969372 8.814846e-06 0)
(0.0076929075 1.3687354e-06 0)
(0.0096549698 8.3168425e-06 0)
(0.011610497 8.2359204e-07 0)
(0.013517746 1.0925833e-05 0)
(0.015448981 1.7182404e-06 0)
(0.017287083 9.012711e-06 0)
(0.019226473 1.2378062e-06 0)
(0.020961199 1.1524717e-05 0)
(0.022976344 2.6276393e-06 0)
(0.024531795 8.9595246e-06 -6.1432027e-23)
(0.026588127 1.1305367e-06 6.1432031e-23)
(0.027834513 9.5318146e-06 0)
(0.027928008 2.3674987e-06 0)
(0.045989343 -7.3612726e-05 -0)
(0.046843835 -0.00013584312 0)
(0.047582232 -7.5112136e-05 0)
(0.048398578 -0.00013520879 0)
(0.049196931 -6.5366884e-05 0)
(0.050039161 -7.908514e-05 0)
(0.050880608 -7.4694403e-05 0)
(0.051739138 -7.9077264e-05 0)
(0.052601402 -7.5576734e-05 0)
(0.053493793 -6.3265443e-05 0)
(0.054378336 -0.00012635046 0)
(0.055283922 -4.8326181e-05 0)
(0.05620251 -0.00012970594 0)
(0.057130692 -5.2680027e-05 0)
(0.058078399 -0.0001211973 0)
(0.059037212 -5.7935076e-05 0)
(0.060015222 -8.0047156e-05 0)
(0.061004382 -7.1931983e-05 0)
(0.062014404 -7.4185585e-05 0)
(0.063030989 -6.6820767e-05 0)
(0.06397745 -6.863659e-05 0)
(0.064870737 -6.2400203e-05 0)
(0.065771553 -6.471962e-05 -0)
(0.06667961 -5.7820327e-05 3.0748452e-22)
(0.067595584 -6.0750757e-05 -3.0445626e-22)
(0.068515468 -5.5239625e-05 -0)
(0.069440054 -5.5477375e-05 0)
(0.070369285 -4.7892477e-05 0)
(0.071305637 -5.4644502e-05 0)
(0.072242842 -5.5949769e-05 0)
(0.073184496 -5.3886425e-05 0)
(0.074125578 -5.7520538e-05 0)
(0.075078314 -5.1472071e-05 0)
(0.076031472 -4.1269108e-05 0)
(0.07698419 -6.7847989e-05 0)
(0.077947838 -3.024913e-05 0)
(0.078911028 -6.9665448e-05 0)
(0.079877071 -3.0943768e-05 0)
(0.080844209 -8.7646748e-05 0)
(0.081815828 -2.6559866e-05 0)
(0.082793399 -7.5542988e-05 0)
(0.08377305 -3.358882e-05 0)
(0.084753429 -9.7894187e-05 0)
(0.085738687 -2.6962893e-05 0)
(0.086729975 -8.6061183e-05 0)
(0.087723016 -3.6399931e-05 0)
(0.08871651 -0.00010715661 0)
(0.089720402 -7.3027934e-06 0)
(0.090725748 -0.00011649016 0)
(0.09173442 -1.4643442e-05 0)
(0.092747367 -0.00011740279 0)
(0.093766794 -9.1525547e-06 0)
(0.094794025 -6.0287767e-05 0)
(0.095817725 -5.8753568e-05 0)
(0.096851344 -4.6868464e-05 0)
(0.097893714 -4.5759381e-05 0)
(0.098938099 -5.0851557e-05 0)
(0.099983329 -5.5977676e-05 0)
(0.10103555 -4.5664117e-05 0)
(0.10209719 -4.1645024e-05 -0)
(0.10316155 -4.4929628e-05 2.1325106e-22)
(0.10422794 -4.4908868e-05 -2.1115084e-22)
(0.1053036 -3.0803087e-05 -0)
(0.10639193 -2.5598832e-05 0)
(0.10748603 -2.8181307e-05 0)
(0.1085856 -2.9010302e-05 0)
(0.10970013 -1.1357305e-05 0)
(0.11083389 -2.350498e-06 -2.0035889e-22)
(0.1119784 -5.6927753e-07 1.9838565e-22)
(0.11313234 -2.4968676e-06 0)
(0.11431255 1.8756353e-06 0)
(0.11550833 1.9880556e-05 0)
(0.11671802 -2.0868198e-05 0)
(0.11795622 6.6331471e-05 0)
(0.11920705 -4.7080267e-06 0)
(0.1204837 9.3686293e-05 -1.88554e-22)
(0.12178302 3.1699354e-05 1.8669695e-22)
(0.12310337 9.9643358e-05 0)
(0.12445216 0.00011056726 0)
(0.12582679 8.8358106e-05 0)
(0.1272329 0.00017323997 0)
(0.1286616 9.4724894e-05 0)
(0.1301233 0.00019522575 0)
(0.13160661 0.00012087953 0)
(0.1331156 0.00023031548 0)
(0.13464011 0.00010668051 0)
(0.13618081 0.00024421204 0)
(0.13772713 7.3476192e-05 0)
(0.13927647 0.00025594696 0)
(0.14082358 1.0452197e-05 0)
(0.14234831 9.9789515e-05 0)
(0.14385955 6.4283269e-05 0)
(0.14534158 5.1446773e-05 0)
(0.14679091 8.075492e-06 0)
(0.14820289 -1.1016287e-05 0)
(0.1495758 -4.9304524e-05 0)
(0.15090777 -6.6273618e-05 0)
(0.15220421 -9.019143e-05 0)
(0.15347071 -9.3519236e-05 0)
(0.15471518 -9.7181693e-05 0)
(0.15594625 -8.0315747e-05 0)
(0.15717406 -7.5465945e-05 0)
(0.15840414 -5.910911e-05 0)
(0.15963545 -7.1131792e-05 -0)
(0.16086273 -8.0636485e-05 1.4406945e-22)
(0.16207384 -0.00012890337 -1.4265053e-22)
(0.16325709 -0.00017778599 -0)
(0.16439997 -0.00020999121 0)
(0.16550178 -0.00024935947 0)
(0.16655151 -0.00026527888 0)
(0.16756831 -0.0003771738 0)
(0.1685881 -6.8120596e-05 -0)
(0.16961148 -0.00016938359 6.3770154e-23)
(0.17067355 -3.6440553e-05 -6.3142111e-23)
(0.17181721 0.00028628527 0)
(0.17300614 -0.00020319879 0)
(0.1742939 0.0005923766 0)
(0.17559215 -0.00042503657 -0)
(0.17686959 0.00027666041 5.8591254e-23)
(0.17804278 -0.00043866088 -5.8014212e-23)
(0.17897336 -0.00052329617 -0)
(0.17965298 -0.00014375144 5.4728062e-23)
(0.17998817 -0.00097492923 -5.4189069e-23)
(0.18008219 2.4512804e-05 5.1631985e-23)
(0.17996267 -0.00087986571 -1.0196278e-24)
(0.17973946 -2.4158427e-05 -4.96104e-23)
(0.17943521 -0.0006292727 -0)
(0.17907343 -0.00043396048 0)
(0.17852979 -0.00064465757 0)
(0.17787618 -0.00064357879 0)
(0.17691566 -0.00077837023 0)
(0.17507054 -0.00077387903 0)
(0.17329692 -0.00092227501 0)
(0.17147686 -0.00035816114 0)
(0.169821 -0.00019636868 0)
(0.16921353 0.00043658147 0)
(0.16973281 0.0036081545 0)
(0.17104742 -0.0018827203 0)
(0.17206415 -0.0014736537 0)
(0.17182879 0.0015604168 -2.5641256e-23)
(0.16909084 7.6434832e-05 2.4415351e-23)
(0.16198537 -0.00033818988 2.4701319e-23)
(0.15009333 -0.0016385641 -2.352034e-23)
(0.14162075 0.0021032839 0)
(0.15386624 0.012981774 0)
(0.19929936 -0.0038895626 0)
(0.27421956 -0.00018830818 0)
(0.35865736 0.0070734089 0)
(0.42768857 0.0027582833 0)
(0.46628718 -0.0024892203 -4.90008e-23)
(0.47052198 -0.0026998558 4.6658045e-23)
(0.4469704 -0.0040252125 0)
(0.40840922 -0.01469716 0)
(0.36731031 0.0073147738 0)
(0.33242122 -0.0065954718 -4.7723921e-24)
(0.3072227 0.0020395332 4.5442218e-24)
(0.29160318 -0.001107952 0)
(0.28351873 0.0003433758 0)
(0.28233115 0.00033343829 0)
(0.2873567 0.00091607315 0)
(0.28827944 0.00068517919 0)
(0.26858532 0.00024807632 0)
(0.23877614 0.0013932012 0)
(0.21806979 0.0007728671 0)
(0.20042736 0.0011210366 0)
(0.23270847 0.0014301309 3.0351661e-24)
(0.31656565 -0.00012597235 -2.8900431e-24)
(0.39863885 -0.0099668093 -0)
(0.48505772 0.0096652398 0)
(0.51957072 0.0039887244 0)
(0.48017332 -0.00045006131 0)
(0.50119385 0.0030923223 0)
(0.61079117 -0.0013532341 -0)
(0.69342501 -0.00021426479 5.4163205e-24)
(0.68093259 -0.0011662595 -5.1573636e-24)
(0.6209639 -0.0023437565 -0)
(0.54782158 -0.0001900655 0)
(0.35515137 -0.0042092639 0)
(0.35137144 0.0028353681 0)
(0.15173078 -0.00041400238 0)
)
;
    }
    hump
    {
        type            calculated;
        value           nonuniform List<vector> 
320
(
(0.028440273 0.0029740869 -9.3827163e-18)
(0.027610813 0.0043504486 -1.8208069e-17)
(0.027402315 0.0058482175 -3.5324781e-17)
(0.023070875 0.0062962026 6.8571392e-17)
(0.017687561 0.0058964042 -3.1770278e-23)
(0.0076172865 0.0029744211 1.6774655e-23)
(-0.0072768882 -0.0033057425 -3.1383628e-17)
(-0.030357279 -0.015238401 2.9042779e-23)
(-0.065405494 -0.035682806 -5.9297135e-17)
(-0.11735783 -0.068371542 1.3771594e-23)
(-0.19353124 -0.11852615 5.6067274e-17)
(-0.30491468 -0.19278915 0)
(-0.46317134 -0.29674991 -5.2779078e-17)
(-0.67613604 -0.43353159 5.0869169e-17)
(-0.96801609 -0.61005044 4.8584559e-17)
(-1.3223216 -0.80627008 -4.5703151e-17)
(-1.7751048 -1.0362631 -5.1564713e-24)
(-2.2478148 -1.1909975 -1.503016e-16)
(-2.6005293 -1.2744577 6.5637012e-17)
(-2.9924007 -1.3844723 -8.8554427e-25)
(-3.3588863 -1.4620701 -2.8751173e-25)
(-3.6778696 -1.5081553 3.2089663e-17)
(-3.9491249 -1.5502527 1.352162e-21)
(-4.3453529 -1.6633629 -1.6071212e-40)
(-4.7299528 -1.6859633 7.1976047e-25)
(-4.8431845 -1.5943106 -1.8190575e-17)
(-4.9508877 -1.5229802 4.2320067e-24)
(-4.9989587 -1.4245532 -1.010561e-21)
(-4.9676999 -1.3130206 -5.2887802e-24)
(-4.8958747 -1.1989624 5.7882365e-17)
(-4.7855984 -1.0898797 6.4649288e-17)
(-4.6770211 -0.99318034 7.9237812e-24)
(-4.5561908 -0.90140837 -7.5175924e-17)
(-4.4254844 -0.81542909 1.2084634e-32)
(-4.2886002 -0.73483819 -8.2145978e-17)
(-4.1463948 -0.66122839 8.446757e-17)
(-4.0433879 -0.6039188 -5.4208343e-17)
(-3.9363813 -0.550132 -5.8323091e-17)
(-3.8242672 -0.5011896 2.927249e-23)
(-3.7175038 -0.45452538 -6.6244173e-17)
(-3.5938525 -0.40976482 -3.505229e-17)
(-3.486181 -0.37012459 -3.6947719e-17)
(-3.3631476 -0.32964957 -7.7712609e-17)
(-3.2370015 -0.2942222 3.9286672e-23)
(-3.1285496 -0.26138946 2.1256226e-17)
(-2.9980827 -0.22889227 1.607512e-33)
(-2.8793057 -0.20165718 -2.3039721e-17)
(-2.7722773 -0.17490659 2.393418e-17)
(-2.640015 -0.14799079 2.8211864e-37)
(-2.5156089 -0.12704714 1.2835584e-17)
(-2.4148108 -0.10771559 1.3261029e-17)
(-2.2993017 -0.086761012 -1.3612372e-17)
(-2.1740338 -0.068193965 -6.1317108e-25)
(-2.0579942 -0.052969771 -7.2686066e-18)
(-1.9487985 -0.039515463 1.1485921e-22)
(-1.8427305 -0.02743496 -3.8610909e-18)
(-1.7404452 -0.016802148 1.9863521e-18)
(-1.6409329 -0.0070582342 1.0212798e-18)
(-1.544574 0.0013924334 1.0620336e-24)
(-1.4503784 0.0090181651 -1.079922e-18)
(-1.3587276 0.015396198 -1.3496607e-22)
(-1.2712842 0.020394287 2.2832753e-18)
(-1.1896689 0.024387311 3.7674594e-34)
(-1.1127573 0.02804092 -9.6564924e-18)
(-1.0381175 0.031403 4.966179e-18)
(-0.96466751 0.034213206 -5.1089654e-18)
(-0.89386446 0.035844452 -1.598621e-22)
(-0.82735994 0.036905918 1.6574432e-22)
(-0.76557265 0.037197638 -5.5724487e-18)
(-0.70779352 0.037469607 5.7395596e-18)
(-0.65283219 0.03760562 5.9132095e-18)
(-0.59998271 0.037488375 3.7201972e-22)
(-0.54903305 0.037015459 -1.9229287e-22)
(-0.5004911 0.036168358 1.9728273e-22)
(-0.45454444 0.034917591 -2.0453237e-22)
(-0.41140865 0.033493657 -6.8997754e-18)
(-0.37088727 0.031658809 -2.1783089e-22)
(-0.3328677 0.029985948 2.2403006e-22)
(-0.29725367 0.027905657 -2.3226676e-22)
(-0.2637638 0.025897088 4.7580562e-24)
(-0.23246199 0.02376931 -2.471499e-22)
(-0.20310932 0.021560714 8.3840976e-18)
(-0.17563211 0.019332681 1.7336247e-17)
(-0.14989585 0.017079789 -2.7320466e-22)
(-0.12579296 0.014812476 9.2712581e-18)
(-0.1032187 0.012504643 -9.5905478e-18)
(-0.082124396 0.010278195 -9.9216183e-18)
(-0.062357319 0.0078880647 -2.3509887e-38)
(-0.043788187 0.0058012811 -1.0625245e-17)
(-0.026344548 0.0034497367 -3.7615819e-37)
(-0.0098707081 0.001271415 1.2530989e-37)
(0.0055947765 -0.00097240673 7.3217582e-41)
(0.020219493 -0.0032132951 4.0055227e-34)
(0.033934567 -0.00546846 3.2990826e-38)
(0.046876013 -0.0076770618 -1.880791e-37)
(0.059009383 -0.0098982986 6.7759903e-18)
(0.07038804 -0.012039801 -7.0191242e-18)
(0.081008489 -0.014254687 -7.26947e-18)
(0.09094804 -0.016241553 7.5231638e-37)
(0.10019917 -0.018331761 7.8003954e-18)
(0.1088183 -0.02023143 -2.0162079e-34)
(0.11677661 -0.022085901 -8.3731148e-18)
(0.12421337 -0.023868395 -8.6754399e-18)
(0.13109569 -0.02559914 -5.484624e-22)
(0.1375942 -0.027240396 5.6856664e-22)
(0.14383823 -0.028980473 -5.8859036e-22)
(0.14976439 -0.030780351 -4.9976461e-18)
(0.155406 -0.032740942 -5.1801196e-18)
(0.16103824 -0.034669714 -5.3675036e-18)
(0.16662581 -0.036938496 -3.7615819e-37)
(0.17226591 -0.039164595 -3.2686425e-26)
(0.17842327 -0.041818054 5.9737211e-18)
(0.18473142 -0.044511298 -6.1908887e-18)
(0.19229849 -0.047684229 -1.2832149e-17)
(0.19984107 -0.051101985 8.1185952e-22)
(0.20970682 -0.055194706 8.4119884e-22)
(0.21847029 -0.059223538 -1.7438839e-21)
(0.23276086 -0.065094727 -7.2080462e-18)
(0.24046799 -0.069150288 7.386254e-18)
(0.26540022 -0.07819875 4.2727526e-18)
(0.28482259 -0.10602584 7.5231638e-37)
(0.26468226 -0.10262128 -1.1725187e-17)
(0.26016849 -0.10492448 -1.6545228e-25)
(0.25193652 -0.10526949 2.3006594e-17)
(0.24851338 -0.1081767 -1.1397051e-17)
(0.24335287 -0.11024183 -6.8894416e-22)
(0.24005677 -0.11327383 -1.1182356e-17)
(0.23590436 -0.11593329 -1.107807e-17)
(0.23219334 -0.11889067 4.7019774e-38)
(0.22771 -0.12135356 -1.0899254e-17)
(0.22330294 -0.12369872 1.0769993e-17)
(0.21818615 -0.12538669 -1.4655123e-33)
(0.21322219 -0.12668134 2.1142215e-17)
(0.20789427 -0.12737743 -1.0472037e-17)
(0.20307725 -0.1277299 -5.5454802e-26)
(0.19851426 -0.12824089 -6.2759809e-22)
(0.19339905 -0.12814837 -1.0180174e-17)
(0.18844069 -0.12746454 6.1583221e-22)
(0.18459273 -0.12734157 0)
(0.17972507 -0.12681862 -1.9804995e-17)
(0.17524015 -0.12568673 -1.962311e-17)
(0.17130508 -0.12512913 1.9444261e-17)
(0.16675886 -0.12395693 1.9255843e-17)
(0.16254798 -0.12265015 5.8645048e-22)
(0.15859253 -0.1214048 1.8906394e-17)
(0.15447484 -0.12000592 -1.8729392e-17)
(0.15041365 -0.11829434 -3.7120419e-17)
(0.14671734 -0.11677172 1.8388355e-17)
(0.14266682 -0.11481759 -1.1054286e-21)
(0.13930999 -0.11304943 1.8105311e-17)
(0.13568549 -0.11134679 1.7885389e-17)
(0.13197244 -0.10899233 -1.8297256e-17)
(0.12918111 -0.10730059 1.7024927e-17)
(0.12565117 -0.10527167 -1.0636776e-21)
(0.12246784 -0.1029501 -1.7242858e-17)
(0.11980107 -0.10107027 -1.0456135e-21)
(0.11693923 -0.099013185 1.6885477e-17)
(0.11440616 -0.09716259 1.0233866e-21)
(0.11170991 -0.095218924 1.6613619e-17)
(0.10919469 -0.093230087 3.2919925e-17)
(0.10683942 -0.091437684 1.2759286e-33)
(0.10429373 -0.089488083 1.6160188e-17)
(0.10181907 -0.087358407 -9.7729999e-22)
(0.099701085 -0.085436345 1.9348446e-21)
(0.09742364 -0.083458472 3.1441166e-17)
(0.095297174 -0.081266076 -9.5093937e-22)
(0.093636875 -0.079471026 3.1169175e-17)
(0.091949744 -0.077702446 -1.5272409e-17)
(0.090386825 -0.075938779 1.5025665e-17)
(0.089178333 -0.074591721 3.0092655e-36)
(0.087545231 -0.073037955 -1.4877608e-17)
(0.086457207 -0.071758609 0)
(0.084988918 -0.070575716 1.464452e-17)
(0.083603821 -0.069169523 -1.1856506e-33)
(0.082255594 -0.06807266 -2.847336e-17)
(0.080745736 -0.066629277 6.2407716e-24)
(0.079431997 -0.065546735 -2.8106082e-17)
(0.077728441 -0.064047738 2.7681391e-17)
(0.076255765 -0.062643852 0)
(0.074801756 -0.061157994 -2.7396095e-17)
(0.073458201 -0.059780888 -8.284808e-22)
(0.072106625 -0.058380002 5.9062767e-24)
(0.070664747 -0.056880817 8.1338975e-22)
(0.069481214 -0.055383892 2.6242305e-17)
(0.068384926 -0.054107923 -2.6057093e-17)
(0.067123762 -0.052621383 -5.1931793e-17)
(0.066168108 -0.051287301 7.868071e-22)
(0.065294604 -0.05010025 -7.8141346e-22)
(0.064313746 -0.048878581 -2.5229212e-17)
(0.063412942 -0.047643533 7.6282442e-22)
(0.062654523 -0.046621787 2.4769318e-17)
(0.061675212 -0.0454595 -7.488998e-22)
(0.060955361 -0.044453519 -1.4349296e-42)
(0.059995636 -0.043425745 -7.3537193e-22)
(0.05908222 -0.042270124 -2.3878733e-17)
(0.058311472 -0.041313884 2.3674642e-17)
(0.057352571 -0.040211187 7.1552066e-22)
(0.056531284 -0.039191335 -2.3228347e-17)
(0.055600428 -0.038076881 7.0246851e-22)
(0.054865332 -0.037042579 -6.9556059e-22)
(0.05408481 -0.036065868 2.2603334e-17)
(0.053279925 -0.035038619 -2.2399957e-17)
(0.05251423 -0.034036397 2.2191763e-17)
(0.051809732 -0.033044038 4.3968343e-17)
(0.0511361 -0.032118047 2.1785908e-17)
(0.050461053 -0.031190303 6.5868564e-22)
(0.049774767 -0.030275305 4.2770361e-17)
(0.04916813 -0.029386022 -2.1181066e-17)
(0.048523377 -0.028528639 1.2822793e-21)
(0.047899329 -0.027638758 -6.3517879e-22)
(0.047366081 -0.026853891 2.0617406e-17)
(0.046729298 -0.025989215 -6.2346673e-22)
(0.046183634 -0.025227934 -2.0233217e-17)
(0.045611934 -0.024398332 6.120626e-22)
(0.045172569 -0.023663637 -1.987586e-17)
(0.044629271 -0.022925856 1.5046328e-36)
(0.044105313 -0.022139843 -6.7595509e-24)
(0.043733491 -0.021463688 5.9002166e-22)
(0.043229657 -0.020755268 1.9146684e-17)
(0.04286479 -0.020088057 -3.7963679e-17)
(0.042404146 -0.019418393 3.0092655e-36)
(0.042091328 -0.018767638 5.6334272e-22)
(0.041710094 -0.018170437 1.8465534e-17)
(0.041409833 -0.017543377 1.8291345e-17)
(0.041106734 -0.01699989 5.53146e-22)
(0.040838579 -0.016416019 1.797016e-17)
(0.040579952 -0.015917428 -3.5597204e-17)
(0.040353796 -0.015379336 -1.7635153e-17)
(0.040135869 -0.014927869 -5.3321938e-22)
(0.039920567 -0.014423573 -1.5759811e-26)
(0.039735024 -0.014019831 1.7162604e-17)
(0.039486206 -0.013530262 -1.6997782e-17)
(0.039346312 -0.013112041 -1.0280248e-21)
(0.039200454 -0.012691816 1.6683596e-17)
(0.039037408 -0.012265077 -5.0471438e-22)
(0.038966855 -0.011862892 1.6386015e-17)
(0.038913504 -0.011534299 1.623392e-17)
(0.03881705 -0.011175112 0)
(0.038796227 -0.010854805 1.5936459e-17)
(0.038730262 -0.010534089 0)
(0.038743554 -0.010195623 2.7155257e-17)
(0.03868033 -0.0098789194 1.5949107e-34)
(0.038654136 -0.0095465338 7.5231638e-37)
(0.038627539 -0.0092369229 1.3845094e-17)
(0.038620389 -0.0089416134 -6.9901665e-27)
(0.03860906 -0.0086705727 8.559747e-22)
(0.038617608 -0.0084065726 7.2212267e-27)
(0.038634153 -0.0081664124 1.4208687e-17)
(0.038677734 -0.0079363037 1.4300837e-17)
(0.038719064 -0.0077749045 -1.439332e-17)
(0.038690685 -0.0075798708 -1.4487942e-17)
(0.038710609 -0.0073904748 4.450182e-22)
(0.038711733 -0.0072153183 -1.4676397e-17)
(0.038717207 -0.007040823 -3.5264831e-38)
(0.038734178 -0.0068842696 -1.4868276e-17)
(0.038715496 -0.0067211786 -1.4964675e-17)
(0.038725475 -0.0065587264 -3.0122375e-17)
(0.038745851 -0.0064131286 -9.2906921e-22)
(0.038765391 -0.0062826432 -1.5258131e-17)
(0.038746621 -0.0061484742 1.5357811e-17)
(0.038757186 -0.0060043375 1.7715526e-27)
(0.038784103 -0.005908451 -4.747539e-22)
(0.038734786 -0.0057965212 7.8299383e-18)
(0.038711896 -0.0056671791 -7.8797402e-18)
(0.038719286 -0.0055666681 9.847166e-28)
(0.03864373 -0.0054826975 7.9821363e-18)
(0.038567789 -0.005360668 3.8203566e-38)
(0.038516897 -0.0052556819 8.0859696e-18)
(0.038417912 -0.0051453324 -8.1384642e-18)
(0.038343248 -0.0050091649 -8.1917856e-18)
(0.038247202 -0.0049266896 3.086378e-34)
(0.038173902 -0.0047719943 1.819117e-24)
(0.038071949 -0.0046844913 8.3519429e-18)
(0.038018465 -0.0045356503 -8.4062564e-18)
(0.03788035 -0.0044644919 -1.6922716e-17)
(0.037769029 -0.004295584 -1.1503388e-34)
(0.03763177 -0.004214665 -1.7141994e-17)
(0.037510264 -0.0040380201 -8.6267438e-18)
(0.037343766 -0.0039279037 8.6826248e-18)
(0.037266352 -0.0037276967 -1.7632415e-38)
(0.037128109 -0.0036320438 8.7962174e-18)
(0.037038397 -0.0034165024 4.4251921e-18)
(0.036943116 -0.0033132174 -4.4545508e-18)
(0.036841187 -0.0030858198 -4.483143e-18)
(0.036811754 -0.0029741879 -5.5092625e-22)
(0.036736757 -0.0027616058 4.5421633e-18)
(0.036720659 -0.002629367 -5.5805258e-22)
(0.036696546 -0.0024103833 5.6165482e-22)
(0.036736215 -0.0022740603 -4.6302777e-18)
(0.036792062 -0.0020682536 -5.6900046e-22)
(0.036879966 -0.0019458626 5.7266583e-22)
(0.036971587 -0.0017440499 -2.3612948e-18)
(0.037094808 -0.0016121436 2.3760484e-18)
(0.037269038 -0.0013979374 -2.3920018e-18)
(0.037506453 -0.0012892629 2.4068645e-18)
(0.037712349 -0.0011019477 -1.2106681e-18)
(0.038007733 -0.00099397403 1.2190394e-18)
(0.038292637 -0.0008272507 1.2269404e-18)
(0.038664138 -0.00068478255 6.0294188e-22)
(0.039064318 -0.00059399033 6.2023499e-19)
(0.039488532 -0.00050836058 1.2215372e-21)
(0.039922147 -0.00046152291 6.2886183e-19)
(0.040387776 -0.00042869563 6.3356187e-19)
(0.040783648 -0.00045654189 -6.3823702e-19)
(0.041150902 -0.00044558921 1.2841174e-18)
(0.041515917 -0.00047017727 6.458885e-19)
(0.041842532 -0.00047698137 8.8162076e-39)
(0.042115933 -0.00048110194 -8.8437152e-38)
(0.042484113 -0.000445704 -4.5306577e-35)
(0.042828604 -0.0004778445 -6.4717109e-22)
(0.043151901 -0.0004698767 6.6829579e-19)
(0.043481543 -0.0005022754 -1.3111146e-21)
(0.043837269 -0.00052139859 2.965578e-26)
(0.044105 -0.00061084809 6.8065151e-19)
(0.044315554 -0.00065173624 1.4629479e-25)
(0.044421316 -0.0007238076 -2.807459e-35)
(0.044508991 -0.00067130234 -6.7694135e-22)
(0.044628 -0.00059707413 -6.9629822e-19)
(0.044804727 -0.00048496018 -6.9381455e-19)
(0.04523462 -0.00021444745 -6.9858164e-22)
)
;
    }
    defaultFaces
    {
        type            empty;
    }
}


// ************************************************************************* //
