/*--------------------------------*- C++ -*----------------------------------*\
| =========                 |                                                 |
| \\      /  F ield         | OpenFOAM: The Open Source CFD Toolbox           |
|  \\    /   O peration     | Version:  2406                                  |
|   \\  /    A nd           | Website:  www.openfoam.com                      |
|    \\/     M anipulation  |                                                 |
\*---------------------------------------------------------------------------*/
FoamFile
{
    version     2.0;
    format      ascii;
    arch        "LSB;label=32;scalar=64";
    class       volScalarField;
    location    "100";
    object      yPlus;
}
// * * * * * * * * * * * * * * * * * * * * * * * * * * * * * * * * * * * * * //

dimensions      [0 0 0 0 0 0 0];

internalField   uniform 0;

boundaryField
{
    inlet
    {
        type            calculated;
        value           uniform 0;
    }
    topWall
    {
        type            symmetry;
    }
    jet
    {
        type            calculated;
        value           uniform 0;
    }
    outlet
    {
        type            calculated;
        value           uniform 0;
    }
    bottomWall
    {
        type            calculated;
        value           nonuniform List<scalar> 
380
(
0.0073120589
0.0073099944
0.0069331928
0.0067271201
0.0064494697
0.0062067959
0.0059613868
0.0057360766
0.0055185439
0.0053159167
0.0051230622
0.0049416354
0.0047694128
0.0046067521
0.0044525505
0.0043064282
0.0041675704
0.0040363027
0.0039110282
0.0037925427
0.003694983
0.0036185177
0.0035520715
0.0034939638
0.0034425612
0.0033967183
0.0033554759
0.00331827
0.0032844405
0.0032535144
0.0032251034
0.0031989596
0.0031748193
0.0031524169
0.0031315581
0.0031120934
0.0030938613
0.0030767681
0.0030607234
0.0030456038
0.0030313083
0.0030177667
0.003004904
0.0029926607
0.0029809723
0.0029697862
0.0029590611
0.0029487609
0.0029388438
0.0029292705
0.0029200012
0.0029109982
0.0029022326
0.0028936783
0.0028853138
0.0028771144
0.0028690588
0.0028611286
0.002853305
0.0028455728
0.0028379249
0.0028303472
0.0028228281
0.0028153659
0.0028079365
0.0028005701
0.0027932222
0.0027859439
0.0027790436
0.0027721985
0.0027650132
0.0027576207
0.002750057
0.0027423066
0.002734367
0.0027262342
0.0027179074
0.0027093781
0.0027006414
0.0026916918
0.0026825217
0.0026731235
0.002663493
0.0026536225
0.0026435054
0.0026331357
0.0026225057
0.0026116109
0.0026004445
0.0025890017
0.0025772761
0.0025652627
0.0025529575
0.0025403544
0.0025274497
0.0025142398
0.0025007215
0.0024868892
0.0024727405
0.0024582742
0.0024434872
0.0024283777
0.0024129425
0.0023971821
0.0023810937
0.0023646791
0.0023479358
0.0023308672
0.0023134692
0.0022957439
0.002277695
0.0022593223
0.0022406252
0.0022216066
0.0022022721
0.0021826203
0.0021626544
0.0021423817
0.0021218
0.0021009164
0.002079735
0.0020582581
0.0020364946
0.0020144469
0.0019921168
0.0019695106
0.0019466352
0.0019234951
0.0019000963
0.0018764396
0.0018525389
0.0018283944
0.001804014
0.0017794014
0.001754563
0.0017295031
0.001704228
0.0016787403
0.001653051
0.0016271559
0.0016010627
0.0015747797
0.0015483052
0.0015216531
0.0014948148
0.0014678026
0.001440606
0.0014132351
0.0013856923
0.0013579742
0.0013300771
0.0013019997
0.001273748
0.0012453092
0.0012166832
0.0011878527
0.0011588271
0.0011295863
0.0011001223
0.0010704166
0.0010404563
0.0010102195
0.00097968366
0.00094882067
0.00091759893
0.00088597941
0.00085391843
0.00082135984
0.00078823614
0.00075447905
0.00071999305
0.0006846486
0.00064831614
0.00061074965
0.00057181943
0.00053099049
0.00048808783
0.00044163627
0.00039100998
0.0003303988
0.00027220066
0.00022442141
0.00016518606
6.8195838e-05
0.00013244666
0.00019868351
0.00024709685
0.00028713858
0.00032167833
0.00035275376
0.00038062601
0.00040690799
0.00043043459
0.0004539375
0.00047397382
0.00049623427
0.00051275623
0.00053381423
0.00054618289
0.00054709903
0.00070205759
0.00070855134
0.00071411331
0.00072021361
0.00072612852
0.00073231815
0.00073844955
0.00074465364
0.00075083294
0.00075717539
0.00076340998
0.00076974003
0.00077610906
0.000782491
0.00078895494
0.00079544006
0.00080200198
0.00080858401
0.00081525026
0.00082190515
0.00082805283
0.00083381363
0.00083958294
0.00084535879
0.00085114536
0.00085691719
0.00086267971
0.00086843261
0.00087419132
0.00087991754
0.00088563362
0.00089130962
0.00089701928
0.00090269548
0.00090833348
0.00091400077
0.00091963061
0.00092524258
0.00093082715
0.00093640382
0.0009419816
0.00094753821
0.00095306657
0.00095859008
0.0009641158
0.00096961944
0.00097509473
0.00098059601
0.00098607492
0.00099154099
0.00099700059
0.0010024645
0.0010079409
0.0010133686
0.0010188198
0.0010242876
0.001029737
0.001035162
0.0010405947
0.0010460476
0.0010514859
0.0010569066
0.0010623464
0.001067822
0.0010732985
0.0010787744
0.0010842966
0.0010898854
0.0010954981
0.0011011282
0.0011068569
0.001112631
0.001118442
0.0011243589
0.0011303045
0.0011363411
0.0011424518
0.0011486283
0.0011549038
0.0011612643
0.0011677351
0.0011742728
0.0011809247
0.0011876361
0.0011944259
0.0012012455
0.0012080994
0.0012149384
0.0012217536
0.0012285201
0.0012351528
0.0012416921
0.0012480715
0.0012542789
0.001260297
0.001266121
0.0012717459
0.001277197
0.0012824998
0.0012876891
0.0012928019
0.0012978813
0.0013029501
0.0013080044
0.0013130228
0.0013179564
0.0013227587
0.0013273807
0.0013318215
0.0013360386
0.0013401108
0.0013441816
0.0013482555
0.0013524696
0.0013569944
0.0013616807
0.0013667415
0.0013718212
0.0013768012
0.0013813612
0.0013849662
0.0013875922
0.0013888913
0.0013892483
0.001388792
0.0013879256
0.0013867532
0.001385353
0.0013832501
0.0013807156
0.0013769839
0.0013697846
0.0013628298
0.0013556496
0.0013490877
0.001346673
0.001348824
0.0013539754
0.0013579814
0.0013570547
0.001346185
0.0013175978
0.00126833
0.0012320263
0.0012854368
0.0014615765
0.0017143254
0.0019606862
0.0021409727
0.002235492
0.0022456213
0.0021887145
0.0020925274
0.0019841982
0.0018876135
0.0018145699
0.0017678344
0.0017431528
0.0017394982
0.0017549138
0.0017577282
0.0016966243
0.0015997129
0.0015287731
0.0014656319
0.0015792575
0.0018419444
0.0020671518
0.0022801602
0.0023597747
0.0022685251
0.00231766
0.0025585341
0.0027261156
0.002701449
0.0025797556
0.0024230596
0.0019510115
0.0019405806
0.0012752105
)
;
    }
    hump
    {
        type            calculated;
        value           nonuniform List<scalar> 
320
(
0.00055609259
0.00054825279
0.00054539816
0.00049859265
0.00043391259
0.00028241448
0.00027380072
0.00055285511
0.00080224173
0.0010623854
0.0013487773
0.0016754934
0.0020465484
0.0024531695
0.0029176742
0.0033955205
0.0039216447
0.0044235835
0.0047574585
0.0050919183
0.0053831406
0.0056196726
0.0058016442
0.0060545805
0.0063048462
0.0063702439
0.0064255073
0.0064441083
0.0064106314
0.0063510704
0.0062650183
0.0061790542
0.0060847682
0.0059834554
0.0058776046
0.0057670844
0.0056846742
0.0056023243
0.0055162296
0.0054348653
0.0053409474
0.0052585435
0.0051648366
0.0050668816
0.0049824203
0.0048794259
0.0047834462
0.0046969394
0.0045874623
0.004480922
0.0043939167
0.0042927503
0.0041791561
0.004070649
0.0039657863
0.0038610149
0.0037571028
0.0036529726
0.0035490426
0.0034441188
0.0033383986
0.0032337351
0.0031325113
0.0030340408
0.0029352332
0.0028341941
0.0027325652
0.0026329021
0.0025363545
0.0024424729
0.0023495419
0.0022563109
0.0021621504
0.002067912
0.0019739904
0.0018810708
0.0017888748
0.0016974405
0.0016065835
0.0015157494
0.0014251596
0.0013341892
0.0012425429
0.001149617
0.0010546904
0.00095674624
0.00085464099
0.0007456837
0.00062586492
0.00048600841
0.00029780704
0.00022521767
0.00042820081
0.00055550848
0.00065381409
0.00073463581
0.00080344699
0.00086318062
0.00091572419
0.00096243848
0.0010041681
0.0010414346
0.0010752558
0.0011058514
0.0011340894
0.0011608822
0.0011860999
0.0012099973
0.0012335108
0.0012568796
0.0012800597
0.0013050988
0.0013303223
0.0013597497
0.0013888049
0.001425318
0.0014575342
0.0015074664
0.0015350315
0.0016153879
0.0017021297
0.0016451436
0.001635302
0.0016130583
0.0016063697
0.0015937925
0.0015871242
0.0015774993
0.0015690884
0.0015578294
0.0015463645
0.0015320637
0.0015176158
0.0015014764
0.0014864431
0.0014721907
0.0014553768
0.0014386894
0.001425814
0.0014090005
0.0013929357
0.0013790505
0.0013622714
0.0013465285
0.0013315721
0.0013157074
0.0012996978
0.0012850078
0.0012684853
0.0012547087
0.0012395933
0.0012236767
0.0012118074
0.0011963582
0.0011821503
0.0011702713
0.0011572674
0.0011457041
0.0011331711
0.0011213415
0.0011101861
0.0010978981
0.0010856919
0.0010752888
0.0010638709
0.0010530064
0.0010446952
0.0010360708
0.0010279968
0.0010219397
0.0010134026
0.0010079135
0.0010002332
0.00099288972
0.00098577669
0.00097752022
0.00097043515
0.00096086084
0.00095255315
0.00094422784
0.00093650794
0.0009286309
0.00092007843
0.00091298728
0.0009064443
0.0008986806
0.00089284717
0.0008875279
0.00088137901
0.00087573081
0.00087106789
0.00086481346
0.00086029918
0.0008541224
0.00084809003
0.00084307889
0.00083663158
0.00083109454
0.00082466002
0.00081954885
0.00081410878
0.00080837017
0.00080285398
0.00079769416
0.00079275287
0.00078771723
0.00078255145
0.00077790531
0.00077294085
0.00076803392
0.00076382948
0.00075866103
0.00075435009
0.00074954087
0.00074583508
0.00074124414
0.00073668425
0.00073333724
0.00072890745
0.00072549865
0.00072132026
0.00071820289
0.00071463588
0.00071153401
0.00070855556
0.00070567419
0.00070302933
0.00070046878
0.00069815008
0.00069565742
0.00069362238
0.00069081312
0.00068899861
0.00068709574
0.00068500014
0.00068365488
0.00068263238
0.00068114891
0.00068035624
0.00067917921
0.0006785876
0.00067740161
0.00067644625
0.00067554131
0.00067479924
0.00067407844
0.00067351481
0.00067309289
0.00067289889
0.00067287665
0.00067219832
0.00067192133
0.0006715277
0.00067115006
0.00067092961
0.00067039729
0.00067006671
0.00066987554
0.00066973285
0.00066927651
0.00066899665
0.00066900767
0.00066835572
0.00066784762
0.0006677007
0.00066689324
0.00066594341
0.00066527
0.00066416211
0.00066318066
0.00066207204
0.000661077
0.00065989089
0.00065906423
0.00065764824
0.00065624401
0.00065474062
0.00065318495
0.00065128221
0.00064995905
0.00064831785
0.00064677795
0.00064543959
0.00064372343
0.00064282877
0.0006413662
0.00064045636
0.00063937641
0.00063884892
0.00063844077
0.00063835247
0.00063829901
0.00063844987
0.00063899725
0.00064019134
0.00064115952
0.00064280851
0.00064449427
0.00064679473
0.00064962113
0.00065261814
0.00065592979
0.00065959142
0.00066295712
0.00066587672
0.00066895965
0.0006716533
0.00067384734
0.00067661736
0.00067950224
0.00068205948
0.00068478178
0.00068770508
0.00069022035
0.00069212279
0.00069318677
0.00069363509
0.00069419495
0.00069460039
0.00069695848
)
;
    }
    defaultFaces
    {
        type            empty;
    }
}


// ************************************************************************* //
