/*--------------------------------*- C++ -*----------------------------------*\
| =========                 |                                                 |
| \\      /  F ield         | OpenFOAM: The Open Source CFD Toolbox           |
|  \\    /   O peration     | Version:  2406                                  |
|   \\  /    A nd           | Website:  www.openfoam.com                      |
|    \\/     M anipulation  |                                                 |
\*---------------------------------------------------------------------------*/
FoamFile
{
    version     2.0;
    format      ascii;
    arch        "LSB;label=32;scalar=64";
    class       volVectorField;
    location    "0";
    object      force;
}
// * * * * * * * * * * * * * * * * * * * * * * * * * * * * * * * * * * * * * //

dimensions      [1 1 -2 0 0 0 0];

internalField   uniform (0 0 0);

boundaryField
{
    inlet
    {
        type            calculated;
        value           uniform (0 0 0);
    }
    topWall
    {
        type            symmetry;
    }
    jet
    {
        type            calculated;
        value           uniform (0 0 0);
    }
    outlet
    {
        type            calculated;
        value           uniform (0 0 0);
    }
    bottomWall
    {
        type            calculated;
        value           uniform (0 0 0);
    }
    hump
    {
        type            calculated;
        value           nonuniform List<vector> 
240
(
(0.077227016 -0.23435049 3.5953428e-20)
(0.0653929 -0.21479628 2.2501434e-20)
(0.050544922 -0.19093774 -2.0132949e-21)
(0.034529355 -0.16334556 2.2229166e-20)
(0.019906962 -0.13504278 2.0779396e-20)
(0.013614643 -0.11487004 -1.4000678e-20)
(0.0062387432 -0.090506899 4.438138e-21)
(0.0031940228 -0.066632125 1.2802917e-21)
(0.0043128563 -0.04453585 6.9787649e-20)
(0.0085095106 -0.023004979 4.1093896e-21)
(-0.0029010812 0.043406499 -2.0353522e-19)
(-0.065966225 0.18503693 -1.2102705e-27)
(-0.079226781 0.23479454 -1.1437697e-26)
(-0.084592206 0.26918503 1.8515166e-19)
(-0.088503522 0.29758253 5.7176426e-20)
(-0.091895895 0.32756039 2.6017332e-19)
(-0.094352284 0.35684796 3.506006e-19)
(-0.095607419 0.383587 2.7069635e-20)
(-0.096159295 0.41376269 2.9498554e-19)
(-0.095967177 0.44063066 -2.0410939e-19)
(-0.095678831 0.46472039 -9.6156227e-20)
(-0.095215351 0.48898942 -1.3806728e-19)
(-0.094552952 0.51335925 -2.6449307e-19)
(-0.093611225 0.53929323 -2.6850495e-35)
(-0.092147074 0.57033653 2.9459518e-19)
(-0.090891909 0.59564522 -1.3515781e-19)
(-0.081199134 0.55929374 -9.5224732e-20)
(-0.067890014 0.50293464 -8.2492757e-22)
(-0.062061953 0.49476233 -8.5719766e-20)
(-0.056200701 0.48513968 1.1153696e-19)
(-0.050289079 0.47398491 1.0029129e-19)
(-0.04355818 0.45944029 -7.4555345e-20)
(-0.037351971 0.44410741 -6.2753264e-21)
(-0.030233355 0.42441589 -2.3951503e-20)
(-0.024094726 0.40417757 -1.2948428e-20)
(-0.018570276 0.38511797 8.8483897e-21)
(-0.01397263 0.36558412 4.8442082e-21)
(-0.0091519906 0.34577385 -1.4913562e-20)
(-0.0053873295 0.32610193 6.9916497e-21)
(-0.0022914456 0.30788383 3.0957483e-21)
(0.00046943178 0.29017165 -2.2022187e-21)
(0.0030262036 0.27225284 -6.8727726e-22)
(0.0050271729 0.25613562 4.0194661e-22)
(0.0066043135 0.24069141 1.1897839e-21)
(0.008092107 0.22559707 2.7654946e-21)
(0.0094114315 0.21146591 -3.172513e-21)
(0.010317561 0.19813205 -8.3030906e-22)
(0.010988141 0.18546329 4.2832494e-22)
(0.011673871 0.17329729 -3.2166187e-21)
(0.012242592 0.1624277 -9.4355384e-27)
(0.012631536 0.15182386 2.8444154e-26)
(0.012847702 0.14077073 -3.8932672e-21)
(0.01291223 0.13150244 -3.3589471e-26)
(0.012892914 0.12277095 7.1067425e-21)
(0.012777425 0.11367149 -2.2482965e-21)
(0.012607188 0.10607854 -7.468491e-22)
(0.012389578 0.098957048 -3.2454985e-21)
(0.01209142 0.091544774 1.0476678e-21)
(0.011813498 0.085517672 -2.3327476e-21)
(0.011528686 0.079645925 -2.7176564e-21)
(0.011223465 0.073825459 -5.1370165e-41)
(0.010939884 0.068893969 -5.5327686e-38)
(0.010603839 0.063735966 3.5925965e-41)
(0.010245452 0.059161179 2.2356678e-21)
(0.0098600842 0.054922431 -4.4625113e-22)
(0.009413131 0.050660497 -8.8113639e-22)
(0.0090167728 0.047224167 -8.7679538e-22)
(0.0085432491 0.043489305 -2.585116e-21)
(0.0081532972 0.04060684 -7.1633669e-22)
(0.0077376789 0.037600446 -2.5523719e-26)
(0.0074308283 0.035150077 6.1552756e-22)
(0.0071310136 0.032592584 -1.2107358e-21)
(0.0068918158 0.030414538 -4.743704e-22)
(0.0066279388 0.028075203 -1.7605734e-21)
(0.0064026244 0.02614745 -1.0861881e-21)
(0.0061217921 0.023923964 -7.6259673e-23)
(0.0058808225 0.022164086 -1.18079e-25)
(0.0056110205 0.020305673 -1.9136279e-22)
(0.0054582609 0.019014999 -9.5217988e-22)
(0.0047722047 0.0161573 -5.5553159e-22)
(0.0080003177 0.021550072 1.8367099e-40)
(0.0078740998 0.020461203 -1.7542284e-21)
(0.0079732121 0.019930737 -5.1924386e-23)
(0.0078693473 0.019023819 1.5564476e-22)
(0.0079321174 0.018403798 -1.4995711e-21)
(0.0079411474 0.017728336 -8.5874813e-23)
(0.0080299432 0.017200606 -1.3876854e-21)
(0.0081121754 0.016694738 1.1199553e-21)
(0.0082695091 0.01631816 7.451075e-23)
(0.008378801 0.015884461 1.1581089e-21)
(0.0085792914 0.015628976 1.3287304e-21)
(0.0087633099 0.015381841 5.458893e-23)
(0.0089613159 0.015193062 1.2372494e-22)
(0.0091533636 0.015041288 1.1365638e-21)
(0.0093432974 0.014933702 4.923135e-24)
(0.0095394188 0.014836531 -3.8960389e-23)
(0.0097529139 0.014773289 -1.1878254e-21)
(0.0099297855 0.014729215 -6.3635851e-26)
(0.010122185 0.014703178 -2.4644297e-22)
(0.01033087 0.014673704 -1.8766317e-21)
(0.010514218 0.014673817 1.5308009e-21)
(0.010711336 0.0146728 -2.2119726e-21)
(0.010912068 0.014681944 -2.7435305e-21)
(0.011095966 0.014700167 -2.8416698e-21)
(0.011285518 0.014726368 2.3650126e-21)
(0.011478329 0.014757213 1.3432904e-21)
(0.011654165 0.014796832 -9.5833177e-22)
(0.011848033 0.014861344 -3.172304e-21)
(0.012006441 0.014904803 -3.498231e-21)
(0.012156454 0.014938083 -2.174945e-21)
(0.01212849 0.014768983 -2.3003412e-21)
(0.012566962 0.015204308 -2.2645524e-21)
(0.012780843 0.015343251 -7.7107312e-22)
(0.01279335 0.01527351 1.5050675e-21)
(0.01293978 0.01539049 3.9556558e-21)
(0.013107359 0.015529885 2.8152214e-21)
(0.01322997 0.015622801 3.3533361e-22)
(0.013373662 0.015731924 -1.9843258e-21)
(0.013516052 0.015866945 1.7307025e-22)
(0.013662638 0.015995879 2.4687466e-22)
(0.013807522 0.016127602 1.9823339e-21)
(0.013934877 0.016279208 1.061705e-21)
(0.014057331 0.016440959 3.2069039e-21)
(0.014175873 0.016611305 1.4412046e-22)
(0.014208252 0.016734584 1.0623947e-22)
(0.01431377 0.016945498 1.2290675e-21)
(0.014545952 0.017314903 -3.673127e-22)
(0.01460869 0.017483823 -7.2922481e-22)
(0.014686607 0.017637847 1.5799267e-21)
(0.014796515 0.017859932 4.0232663e-22)
(0.014912377 0.018008109 -1.9152587e-21)
(0.014956255 0.018126401 -3.0884975e-22)
(0.015330013 0.018583505 -5.3507271e-21)
(0.015325057 0.018622789 -8.1500633e-21)
(0.015613038 0.018979743 -1.877525e-21)
(0.015781126 0.019227382 2.9227051e-21)
(0.015839772 0.019379657 2.0580897e-21)
(0.015968324 0.019638614 1.8809415e-21)
(0.016095644 0.019903712 -5.9762254e-21)
(0.016218287 0.020181864 -2.3357441e-21)
(0.0163979 0.020606029 -3.6322446e-21)
(0.01648873 0.020901236 -4.688529e-21)
(0.016487723 0.021129996 -4.1727085e-22)
(0.016521027 0.021435217 -7.5796995e-26)
(0.016608204 0.021783807 -1.5205468e-21)
(0.016760742 0.022228737 -2.8527074e-21)
(0.01684304 0.022603582 2.4971938e-21)
(0.016938571 0.022975056 1.8892039e-21)
(0.017033667 0.023369328 3.8395239e-26)
(0.017139423 0.023733674 1.1046949e-25)
(0.017219756 0.024144094 4.0966224e-21)
(0.017310687 0.024562901 4.2847764e-21)
(0.017404158 0.024991785 1.0652227e-21)
(0.017478089 0.025425272 2.9212179e-21)
(0.017534936 0.025884062 -1.2196416e-26)
(0.017582645 0.026343843 -2.5432951e-21)
(0.017622846 0.026801452 -4.8429992e-21)
(0.017655887 0.02728835 2.8817149e-21)
(0.017672613 0.027806959 1.0049609e-21)
(0.017686067 0.02836267 4.4071096e-21)
(0.017694413 0.028893466 1.2052883e-22)
(0.01769249 0.029437938 1.9656354e-21)
(0.017674939 0.029979902 2.4050083e-21)
(0.017639462 0.030526335 -3.0673183e-26)
(0.0176101 0.031107262 -3.2964198e-21)
(0.017568007 0.031685745 -7.8090774e-22)
(0.01750862 0.032336654 -4.5341519e-21)
(0.017421162 0.032961955 9.1262024e-22)
(0.017334971 0.033577765 3.1926022e-21)
(0.017241529 0.03419769 4.3855876e-21)
(0.017123509 0.034857394 4.3068411e-21)
(0.017009898 0.03551931 3.6276119e-21)
(0.016869743 0.036177061 5.4049203e-22)
(0.016703681 0.036866769 6.7861579e-22)
(0.016530672 0.037621593 9.1277517e-21)
(0.016361991 0.038312636 1.9901246e-21)
(0.016166481 0.039078423 -2.2657057e-21)
(0.015946894 0.039851792 -3.7068365e-21)
(0.01570824 0.0407735 -1.559443e-21)
(0.015493144 0.041570445 -3.2073851e-21)
(0.015286461 0.042353124 6.0863889e-26)
(0.015076682 0.043097421 -3.7793915e-21)
(0.014838258 0.043928402 -4.9875552e-21)
(0.014592426 0.044740396 1.1775278e-21)
(0.014368524 0.045497692 3.6591166e-21)
(0.014118935 0.046240209 2.4324147e-21)
(0.01388896 0.047001641 5.5389306e-21)
(0.013677035 0.047744651 2.1852562e-21)
(0.013465287 0.048477295 3.7151859e-21)
(0.013257212 0.049180508 1.6198542e-21)
(0.014491446 0.055533633 -7.4598699e-21)
(0.014645815 0.057674713 -4.0918628e-21)
(0.014207958 0.05759835 -1.2947653e-37)
(0.01378378 0.05751288 1.7208537e-21)
(0.013380408 0.057405318 4.789495e-21)
(0.012987901 0.057309662 3.5300845e-28)
(0.012551379 0.057156823 -3.1306299e-25)
(0.012191159 0.05702982 -4.9718315e-26)
(0.011856937 0.056879647 3.8900381e-21)
(0.011536783 0.056738628 9.453617e-23)
(0.011240161 0.056585261 -1.5588268e-21)
(0.01096947 0.056399411 3.2311107e-21)
(0.010700244 0.056202088 -5.723272e-21)
(0.010380544 0.055964076 -1.5833989e-25)
(0.010130885 0.055744891 4.279637e-21)
(0.0098833525 0.055529365 1.8583364e-21)
(0.0096475586 0.055303354 2.3707849e-21)
(0.0094225149 0.055063107 2.2755083e-21)
(0.0092006288 0.054812924 -5.3825029e-21)
(0.008938859 0.054537164 -5.668611e-22)
(0.0087089304 0.05426566 9.5426079e-21)
(0.0085144471 0.054008811 7.0784548e-21)
(0.008327693 0.053733142 5.4652618e-21)
(0.008141277 0.053456671 4.2625314e-21)
(0.0079508019 0.053201011 7.6409871e-27)
(0.0077557939 0.052857169 1.5852383e-25)
(0.0075875487 0.052527673 2.3864369e-21)
(0.0074217125 0.052238349 -6.2002033e-22)
(0.0072658917 0.051947562 -1.7740297e-21)
(0.0071235962 0.051641501 -3.94176e-22)
(0.0069718355 0.051268299 -2.5802617e-21)
(0.006783125 0.050895885 -2.0995297e-22)
(0.0066393336 0.050569776 -1.7452232e-21)
(0.0064961247 0.050236479 -2.6880871e-21)
(0.0063500664 0.049900945 -1.8243805e-21)
(0.0061848462 0.049542096 2.5551383e-21)
(0.0059978556 0.049125267 1.6210151e-22)
(0.0058523572 0.04878849 -3.6363959e-21)
(0.0057077561 0.048452786 -1.9513329e-21)
(0.005565193 0.048119994 1.960499e-21)
(0.0054062919 0.047740262 -2.7984453e-21)
(0.0052571248 0.047297587 -5.7754507e-22)
(0.0051163642 0.046953493 -1.0882224e-22)
(0.00497756 0.046605493 -8.7459508e-23)
(0.0048445322 0.046247724 -1.7217428e-22)
(0.004647788 0.048947932 2.4641386e-21)
(0.0044683942 0.071831072 2.6056275e-21)
(0.0042601336 0.070437963 1.5124798e-21)
(0.0041177506 0.065122045 4.0362124e-22)
(0.0039358937 0.070180515 2.7086849e-21)
)
;
    }
    defaultFaces
    {
        type            empty;
    }
}


// ************************************************************************* //
