/*--------------------------------*- C++ -*----------------------------------*\
| =========                 |                                                 |
| \\      /  F ield         | OpenFOAM: The Open Source CFD Toolbox           |
|  \\    /   O peration     | Version:  2406                                  |
|   \\  /    A nd           | Website:  www.openfoam.com                      |
|    \\/     M anipulation  |                                                 |
\*---------------------------------------------------------------------------*/
FoamFile
{
    version     2.0;
    format      ascii;
    arch        "LSB;label=32;scalar=64";
    class       volScalarField;
    location    "0";
    object      initialResidual:Uy;
}
// * * * * * * * * * * * * * * * * * * * * * * * * * * * * * * * * * * * * * //

dimensions      [0 0 0 0 0 0 0];

internalField   nonuniform List<scalar> 
24384
(
-1.4190541e-14
-1.3840209e-14
-1.7882013e-14
-3.416854e-14
-3.0359785e-14
-5.0050404e-14
-3.2985395e-14
-7.1799634e-14
-1.2045553e-13
-1.9982521e-13
-6.0022665e-13
-7.7537186e-13
-2.7365005e-12
-7.3912749e-12
-2.0193256e-14
-2.6644536e-14
-4.6901009e-14
-9.5467547e-14
-1.0091372e-13
-2.4136721e-13
-1.8244118e-13
-5.6131479e-13
-1.0135451e-12
-1.7377646e-12
-5.4766552e-12
-7.2100214e-12
-3.2100617e-11
-7.6615913e-11
-2.4437436e-14
-4.9665895e-14
-1.3128956e-13
-2.5895654e-13
-2.5622292e-13
-6.8067426e-13
-4.9070009e-13
-1.6206515e-12
-2.7794926e-12
-4.6394576e-12
-1.4436174e-11
-1.8837504e-11
-8.8185256e-11
-2.0393205e-10
-3.0402925e-14
-8.2639634e-14
-2.5347486e-13
-4.4217676e-13
-4.0861623e-13
-1.1759568e-12
-8.3010759e-13
-2.8946259e-12
-4.8443218e-12
-8.036139e-12
-2.4895281e-11
-3.2131237e-11
-1.5468254e-10
-3.5077367e-10
-3.323836e-14
-1.0357323e-13
-3.5238949e-13
-5.8130197e-13
-5.2115046e-13
-1.6627597e-12
-1.1735576e-12
-4.3000621e-12
-7.1059964e-12
-1.1837045e-11
-3.6506844e-11
-4.6421841e-11
-2.2802344e-10
-5.0796743e-10
-3.1798837e-14
-1.1006575e-13
-4.2265576e-13
-6.9458938e-13
-6.0731498e-13
-2.162777e-12
-1.5377949e-12
-5.8962105e-12
-9.6656022e-12
-1.6277298e-11
-4.9880098e-11
-6.2271345e-11
-3.1131106e-10
-6.8054519e-10
-2.7805507e-14
-1.0831999e-13
-4.5953806e-13
-7.8396588e-13
-6.6419679e-13
-2.6217163e-12
-1.8832112e-12
-7.5002521e-12
-1.2252759e-11
-2.0969364e-11
-6.3803725e-11
-7.8182072e-11
-3.9691886e-10
-8.5188888e-10
-2.3657837e-14
-8.933736e-14
-4.7352836e-13
-8.6099901e-13
-6.942852e-13
-3.0638363e-12
-2.2295441e-12
-9.1756614e-12
-1.4992367e-11
-2.6253427e-11
-7.9272451e-11
-9.5293033e-11
-4.9130348e-10
-1.0345214e-09
-2.3429109e-14
-7.3255355e-14
-4.348455e-13
-9.2342627e-13
-6.9071485e-13
-3.4454253e-12
-2.5472376e-12
-1.073569e-11
-1.758693e-11
-3.16926e-11
-9.4982101e-11
-1.1221542e-10
-5.8717323e-10
-1.2144341e-09
-2.9001068e-14
-7.6614462e-14
-3.9473866e-13
-8.9927304e-13
-6.5675548e-13
-3.7454119e-12
-2.8297373e-12
-1.2098093e-11
-1.9895558e-11
-3.7074764e-11
-1.1027833e-10
-1.2842002e-10
-6.8140295e-10
-1.387501e-09
-3.4819371e-14
-6.9964482e-14
-2.6070866e-13
-9.1465023e-13
-6.3778213e-13
-3.9348854e-12
-3.0841411e-12
-1.3235762e-11
-2.1884058e-11
-4.2441369e-11
-1.251661e-10
-1.4413671e-10
-7.7498046e-10
-1.5583281e-09
-4.9529034e-14
-1.1210263e-13
-1.8405258e-13
-7.5872184e-13
-4.8320938e-13
-3.9364465e-12
-3.3073738e-12
-1.3991919e-11
-2.3322775e-11
-4.7299865e-11
-1.3815685e-10
-1.5810493e-10
-8.5949077e-10
-1.7164908e-09
-6.5393097e-14
-1.6198277e-13
-2.0204152e-13
-6.2297965e-13
-4.7069505e-13
-3.7108281e-12
-3.4704736e-12
-1.4298425e-11
-2.4135911e-11
-5.1395126e-11
-1.485719e-10
-1.6991343e-10
-9.3114042e-10
-1.8586547e-09
-8.5545811e-14
-2.444008e-13
-2.9077038e-13
-4.0240053e-13
-2.175621e-13
-3.3365697e-12
-3.4772289e-12
-1.4151389e-11
-2.4296348e-11
-5.4557223e-11
-1.5606122e-10
-1.7952943e-10
-9.8830859e-10
-1.9798664e-09
-1.2786927e-13
-3.3384204e-13
-5.4383902e-13
-2.2627893e-13
-7.0406313e-13
-2.1882686e-12
-3.2186273e-12
-1.3384863e-11
-2.3616922e-11
-5.6597174e-11
-1.6077251e-10
-1.8626977e-10
-1.0319557e-09
-2.0860714e-09
-1.795764e-13
-4.6995166e-13
-5.6041896e-13
-5.4962728e-13
-7.591516e-13
-1.4006019e-12
-2.8240058e-12
-1.2090064e-11
-2.1565867e-11
-5.7365607e-11
-1.5882856e-10
-1.9538946e-10
-1.0572368e-09
-2.0760262e-09
-2.1355349e-13
-6.7347459e-13
-7.635794e-13
-6.8313413e-13
-9.8016302e-13
-1.4748052e-12
-1.7894635e-12
-9.5483928e-12
-2.0834843e-11
-5.378063e-11
-1.7057081e-10
-1.5121749e-10
-1.0679206e-09
-2.1064374e-09
-3.3496961e-13
-8.0914247e-13
-1.150825e-12
-1.0298706e-12
-1.2611286e-12
-1.5631053e-12
-1.7886032e-12
-6.7845002e-12
-1.5457199e-11
-4.8154962e-11
-1.3313905e-10
-2.2266899e-10
-9.8976262e-10
-2.0640805e-09
-3.9194266e-13
-9.7108511e-13
-1.3989653e-12
-1.2366995e-12
-1.8285159e-12
-2.0708802e-12
-2.5741939e-12
-5.0189866e-12
-1.0942594e-11
-4.0753413e-11
-1.2757596e-10
-1.8580746e-10
-9.5598041e-10
-1.9803322e-09
-4.6909956e-13
-1.3481875e-12
-1.6727134e-12
-1.8112255e-12
-2.172235e-12
-2.4968071e-12
-2.2229831e-12
-4.3917627e-12
-8.8070208e-12
-2.9204873e-11
-1.0369334e-10
-1.6297272e-10
-8.6644121e-10
-1.8450494e-09
-5.1121599e-13
-1.7866829e-12
-1.6343336e-12
-2.5407603e-12
-2.0042954e-12
-3.3157288e-12
-2.9238148e-12
-7.4800154e-12
-4.8807818e-12
-2.1522869e-11
-7.6824586e-11
-1.3244817e-10
-7.5485401e-10
-1.6690959e-09
-5.0636442e-13
-1.9690967e-12
-2.076851e-12
-2.471687e-12
-2.8517601e-12
-3.8410038e-12
-3.919932e-12
-7.5113867e-12
-4.8642667e-12
-2.5619199e-11
-4.2197347e-11
-1.1804413e-10
-5.9613863e-10
-1.4237775e-09
-4.9344638e-13
-2.3264681e-12
-2.2385367e-12
-2.9386527e-12
-3.512593e-12
-4.483697e-12
-4.8083053e-12
-9.1236024e-12
-5.6204348e-12
-3.0730976e-11
-2.9210863e-11
7.0059773e-12
-5.2586334e-10
-1.1314846e-09
-5.2165917e-13
-2.6092333e-12
-2.7268292e-12
-3.5488312e-12
-4.174515e-12
-5.3521119e-12
-5.7364345e-12
-1.0890307e-11
-8.301498e-12
-3.1611949e-11
-4.835806e-11
-4.5916252e-11
-2.9296128e-10
-7.4999579e-10
-5.9926995e-13
-2.9600801e-12
-3.2373754e-12
-4.0794246e-12
-4.6713865e-12
-6.5976777e-12
-8.486923e-12
-1.1517326e-11
-7.5143695e-12
-4.4172935e-11
-5.9769371e-11
-1.2002337e-11
-2.8241163e-10
-5.2725736e-10
-5.9770011e-13
-3.4081727e-12
-3.6422159e-12
-4.9704519e-12
-5.8665086e-12
-7.8772412e-12
-9.8145987e-12
-1.4389614e-11
-1.142556e-11
-4.8664683e-11
-6.3930505e-11
-4.7400173e-11
-3.0133847e-10
-2.2571112e-10
-5.679853e-13
-3.6982105e-12
-4.5797179e-12
-5.8457271e-12
-7.1951399e-12
-9.5574407e-12
-1.1557697e-11
-1.809039e-11
-1.4817638e-11
-5.7012051e-11
-6.9674065e-11
-8.4593841e-11
-3.2046674e-10
-3.1564446e-10
-6.9028824e-13
-4.51229e-12
-4.6811847e-12
-7.4949447e-12
-8.4486144e-12
-1.1695543e-11
-1.6020718e-11
-2.0019386e-11
-1.7470823e-11
-7.1898689e-11
-7.7901057e-11
-1.1509657e-10
-3.7269296e-10
-3.4492069e-10
-8.2872936e-13
-5.1262118e-12
-5.4908965e-12
-9.039206e-12
-1.0407664e-11
-1.4220753e-11
-1.9680793e-11
-2.4496095e-11
-2.321504e-11
-8.3699923e-11
-9.4277058e-11
-1.3586327e-10
-4.2327258e-10
-4.9138385e-10
-8.9699354e-13
-6.105538e-12
-6.2141373e-12
-1.1146704e-11
-1.2976899e-11
-1.7371137e-11
-2.5222078e-11
-2.9504961e-11
-2.9437738e-11
-1.0203483e-10
-1.0761324e-10
-1.8419788e-10
-4.7602301e-10
-6.5797143e-10
-1.0239531e-12
-6.8928541e-12
-7.7421099e-12
-1.3247563e-11
-1.6056135e-11
-2.1294052e-11
-3.0217168e-11
-3.7129853e-11
-4.0064796e-11
-1.1591803e-10
-1.2974507e-10
-2.3018654e-10
-5.4342612e-10
-8.4536522e-10
-1.3393727e-12
-8.5531012e-12
-8.5032845e-12
-1.667872e-11
-2.0313071e-11
-2.620253e-11
-3.9535645e-11
-4.4819446e-11
-5.0691958e-11
-1.4384201e-10
-1.5475174e-10
-2.9284811e-10
-6.3394654e-10
-1.074272e-09
-1.5688342e-12
-1.0073735e-11
-1.0170456e-11
-2.0072568e-11
-2.5219131e-11
-3.1850193e-11
-4.8578691e-11
-5.5075776e-11
-6.5452563e-11
-1.684564e-10
-1.8519637e-10
-3.6260927e-10
-7.311536e-10
-1.3215559e-09
-1.8752994e-12
-1.2073576e-11
-1.298166e-11
-2.4753088e-11
-3.2092681e-11
-4.0335474e-11
-6.0062499e-11
-7.15406e-11
-8.8465708e-11
-1.9893086e-10
-2.3320074e-10
-4.5151107e-10
-8.7310856e-10
-1.652575e-09
-2.3871823e-12
-1.4259172e-11
-1.5663248e-11
-2.9897484e-11
-3.8881974e-11
-4.9658871e-11
-7.1913967e-11
-8.9035974e-11
-1.1442096e-10
-2.2730677e-10
-2.7660119e-10
-5.7300992e-10
-1.0132661e-09
-1.8936512e-09
-2.5341928e-12
-1.7530616e-11
-2.0533339e-11
-3.7120999e-11
-5.0099641e-11
-6.2915534e-11
-9.1961849e-11
-1.1388545e-10
-1.4825924e-10
-2.8235953e-10
-3.5217145e-10
-6.9893898e-10
-1.2428096e-09
-2.297427e-09
-2.8463663e-12
-2.0171141e-11
-2.6651358e-11
-4.4216681e-11
-5.9472689e-11
-7.8269309e-11
-1.0861056e-10
-1.4220844e-10
-1.9021264e-10
-3.1926076e-10
-4.2413791e-10
-8.5566624e-10
-1.4330807e-09
-2.704663e-09
-3.5640719e-12
-2.5231815e-11
-3.3439607e-11
-5.5572546e-11
-7.5112291e-11
-9.9243405e-11
-1.3635907e-10
-1.8162797e-10
-2.4440992e-10
-3.9128998e-10
-5.440237e-10
-1.0075562e-09
-1.7420962e-09
-3.3256425e-09
-3.6925686e-12
-2.9054122e-11
-4.3654007e-11
-6.6086227e-11
-8.8538156e-11
-1.2295712e-10
-1.6270005e-10
-2.2310959e-10
-3.0535351e-10
-4.5115e-10
-6.5676812e-10
-1.2007826e-09
-2.0278856e-09
-3.8192169e-09
-4.2159842e-12
-3.5510879e-11
-5.4629569e-11
-8.1165809e-11
-1.0907145e-10
-1.5242438e-10
-2.007933e-10
-2.7670093e-10
-3.7865065e-10
-5.4926175e-10
-8.1634827e-10
-1.388952e-09
-2.4295569e-09
-4.446071e-09
-4.566089e-12
-4.1151718e-11
-6.8213385e-11
-9.626372e-11
-1.2770837e-10
-1.8508467e-10
-2.3888434e-10
-3.3233105e-10
-4.5940641e-10
-6.3769738e-10
-9.7047662e-10
-1.6107295e-09
-2.7957124e-09
-5.0167302e-09
-5.4361432e-12
-4.8916313e-11
-8.1046287e-11
-1.1438238e-10
-1.5225044e-10
-2.1952882e-10
-2.8454564e-10
-3.9441573e-10
-5.4269254e-10
-7.5587615e-10
-1.146154e-09
-1.8083965e-09
-3.2200106e-09
-5.6128023e-09
-6.2075057e-12
-5.5701138e-11
-9.4773473e-11
-1.3165938e-10
-1.7455587e-10
-2.5403567e-10
-3.2775717e-10
-4.5433532e-10
-6.2654511e-10
-8.5957427e-10
-1.3004091e-09
-2.0218273e-09
-3.6109915e-09
-5.9893455e-09
-6.7698605e-12
-5.9713819e-11
-1.084554e-10
-1.4524111e-10
-1.8992293e-10
-2.8399772e-10
-3.629486e-10
-5.0118398e-10
-6.9623877e-10
-9.3627261e-10
-1.4048445e-09
-2.238486e-09
-3.7920446e-09
-6.1927725e-09
-7.3288144e-12
-6.7471341e-11
-1.059627e-10
-1.5424611e-10
-2.077528e-10
-2.8998294e-10
-3.8003567e-10
-5.2470632e-10
-7.217503e-10
-9.8472274e-10
-1.4219201e-09
-2.3158713e-09
-3.782157e-09
-6.1383203e-09
-7.0010696e-12
-6.4276106e-11
-1.0108048e-10
-1.469845e-10
-1.9745999e-10
-2.7614047e-10
-3.6133733e-10
-4.9815943e-10
-6.6677571e-10
-9.6244742e-10
-1.359575e-09
-2.1098816e-09
-3.4804379e-09
-5.5713938e-09
-5.3357299e-12
-4.8984357e-11
-7.6984975e-11
-1.118713e-10
-1.5021374e-10
-2.096673e-10
-2.7339472e-10
-3.752079e-10
-5.0132017e-10
-7.4267522e-10
-1.0214638e-09
-1.5585015e-09
-2.5705181e-09
-4.0722307e-09
-2.4168893e-12
-2.2410363e-11
-3.5239804e-11
-5.1216682e-11
-6.8784484e-11
-9.6023705e-11
-1.250451e-10
-1.7349248e-10
-2.2907339e-10
-3.4372079e-10
-4.4683307e-10
-7.1933045e-10
-1.1580903e-09
-1.8220227e-09
-2.1720925e-11
-1.7587346e-11
-2.4917765e-11
-2.8354638e-11
-3.0775789e-11
-3.1867487e-11
-3.234973e-11
-3.2016054e-11
-2.9554932e-11
-2.9129696e-11
-2.7519506e-11
-2.6107588e-11
-2.459102e-11
-2.3314285e-11
-2.2011326e-11
-2.0966946e-11
-1.901957e-11
-1.8428332e-11
-1.7407986e-11
-1.6513543e-11
-1.57359e-11
-1.4662552e-11
-1.4076415e-11
-1.3275437e-11
-1.267287e-11
-1.2110507e-11
-1.1480274e-11
-1.1017483e-11
-1.0552994e-11
-9.9979815e-12
-9.6757629e-12
-9.2066173e-12
-8.4689396e-12
-8.3781713e-12
-8.2480968e-12
-8.1421538e-12
-8.0146571e-12
-7.9465182e-12
-7.8472538e-12
-7.7865234e-12
-7.6847298e-12
-7.6094763e-12
-7.5534876e-12
-7.4978419e-12
-7.4357778e-12
-7.3663827e-12
-7.3358686e-12
-7.307501e-12
-7.2655069e-12
-7.2391173e-12
-7.2092321e-12
-7.1821007e-12
-7.1707783e-12
-7.1611187e-12
-7.1623927e-12
-7.1521609e-12
-7.1346329e-12
-7.147075e-12
-7.12812e-12
-7.1169328e-12
-7.1251036e-12
-7.1196524e-12
-7.1444489e-12
-7.0916356e-12
-7.1032783e-12
-7.0991126e-12
-7.0930212e-12
-7.0785574e-12
-7.0576608e-12
-7.0290262e-12
-7.0018322e-12
-6.9641789e-12
-6.9322892e-12
-6.8695417e-12
-6.829197e-12
-6.7053672e-12
-6.5785149e-12
-6.5130705e-12
-6.4434018e-12
-6.2255205e-12
-5.9372372e-12
-5.8700278e-12
-5.6193486e-12
-5.3732922e-12
-5.1009202e-12
-4.7872791e-12
-4.4093681e-12
-4.0329316e-12
-3.5981012e-12
-3.1207696e-12
-2.7091938e-12
-2.0785618e-12
-1.1855206e-12
-5.4349046e-13
9.3752536e-14
9.197393e-13
2.1956736e-12
3.1302924e-12
4.4653724e-12
5.6252521e-12
7.2170105e-12
8.7161098e-12
1.0860275e-11
1.2813952e-11
1.5578376e-11
1.8819906e-11
-2.3493162e-10
-1.9840782e-10
-2.7450788e-10
-3.1306947e-10
-3.4053691e-10
-3.5220761e-10
-3.5539561e-10
-3.507817e-10
-3.3393637e-10
-3.2284373e-10
-3.04932e-10
-2.8964036e-10
-2.7256972e-10
-2.5824508e-10
-2.4271792e-10
-2.3041055e-10
-2.1397583e-10
-2.0423536e-10
-1.9245766e-10
-1.8258636e-10
-1.7267255e-10
-1.6317184e-10
-1.550476e-10
-1.4737429e-10
-1.3999982e-10
-1.3381171e-10
-1.2705781e-10
-1.2184247e-10
-1.1619962e-10
-1.1112709e-10
-1.0658654e-10
-1.0226954e-10
-9.3830358e-11
-9.2833543e-11
-9.1526481e-11
-9.0489332e-11
-8.9318333e-11
-8.8522379e-11
-8.7564754e-11
-8.6887637e-11
-8.6088261e-11
-8.5451044e-11
-8.4903189e-11
-8.4416358e-11
-8.3978068e-11
-8.3558363e-11
-8.3383843e-11
-8.3279321e-11
-8.3148192e-11
-8.3136707e-11
-8.3152574e-11
-8.3246526e-11
-8.343877e-11
-8.3715816e-11
-8.4044884e-11
-8.4426783e-11
-8.4769856e-11
-8.5325055e-11
-8.5736021e-11
-8.6305494e-11
-8.6872329e-11
-8.7533337e-11
-8.8220323e-11
-8.8767826e-11
-8.9465724e-11
-9.0278232e-11
-9.0984704e-11
-9.1811747e-11
-9.2505952e-11
-9.3302573e-11
-9.4002235e-11
-9.4765364e-11
-9.546554e-11
-9.6085826e-11
-9.6734099e-11
-9.711003e-11
-9.7398108e-11
-9.7902286e-11
-9.8323835e-11
-9.8123249e-11
-9.7608789e-11
-9.7892526e-11
-9.732334e-11
-9.6686395e-11
-9.5844947e-11
-9.4703813e-11
-9.315343e-11
-9.1460262e-11
-8.9321637e-11
-8.6891802e-11
-8.4237105e-11
-8.0719982e-11
-7.5765311e-11
-7.1556976e-11
-6.6618719e-11
-6.0956599e-11
-5.2698754e-11
-4.5491521e-11
-3.5500493e-11
-2.6196794e-11
-1.3252306e-11
-8.3039593e-13
1.6980789e-11
3.3792517e-11
5.8085764e-11
8.3875037e-11
-6.3128431e-10
-5.3653121e-10
-7.3862297e-10
-8.4299647e-10
-9.1738654e-10
-9.4857777e-10
-9.5591745e-10
-9.4288138e-10
-9.0375683e-10
-8.6998421e-10
-8.2164652e-10
-7.8065009e-10
-7.3441144e-10
-6.9568537e-10
-6.5313155e-10
-6.1942523e-10
-5.7820584e-10
-5.500147e-10
-5.1790605e-10
-4.912872e-10
-4.6378043e-10
-4.3959726e-10
-4.1671439e-10
-3.9672288e-10
-3.7642954e-10
-3.5977609e-10
-3.417226e-10
-3.2760415e-10
-3.1208836e-10
-2.9908198e-10
-2.8625357e-10
-2.7516722e-10
-2.5231251e-10
-2.4961729e-10
-2.4618186e-10
-2.4346743e-10
-2.4046538e-10
-2.3828566e-10
-2.3580361e-10
-2.3396383e-10
-2.3199302e-10
-2.3039955e-10
-2.2898084e-10
-2.2776237e-10
-2.2671758e-10
-2.2582192e-10
-2.2546254e-10
-2.253284e-10
-2.2521028e-10
-2.2537674e-10
-2.25666e-10
-2.2619998e-10
-2.2694852e-10
-2.2797365e-10
-2.2910618e-10
-2.3050152e-10
-2.3182181e-10
-2.3366953e-10
-2.352397e-10
-2.3730592e-10
-2.3922737e-10
-2.4159979e-10
-2.4382205e-10
-2.4617221e-10
-2.4855989e-10
-2.5149398e-10
-2.5407514e-10
-2.5717576e-10
-2.5986729e-10
-2.6301285e-10
-2.6581981e-10
-2.6897214e-10
-2.7187719e-10
-2.748132e-10
-2.7768563e-10
-2.8028305e-10
-2.8262898e-10
-2.8536354e-10
-2.8788773e-10
-2.8942274e-10
-2.9039995e-10
-2.9261119e-10
-2.9334301e-10
-2.9382682e-10
-2.9390946e-10
-2.9330287e-10
-2.9190487e-10
-2.9000269e-10
-2.8717134e-10
-2.8359531e-10
-2.7915549e-10
-2.7303326e-10
-2.6400785e-10
-2.5575149e-10
-2.4537637e-10
-2.3341577e-10
-2.1567202e-10
-1.990296e-10
-1.7561222e-10
-1.5282617e-10
-1.2007203e-10
-8.7634344e-11
-3.9693346e-11
7.4660545e-12
7.835475e-11
1.5474678e-10
-1.0991281e-09
-9.3782975e-10
-1.2882785e-09
-1.4718629e-09
-1.6031611e-09
-1.6582787e-09
-1.6710976e-09
-1.6484373e-09
-1.5853792e-09
-1.5237463e-09
-1.4394142e-09
-1.3680148e-09
-1.2870511e-09
-1.2192614e-09
-1.1443393e-09
-1.0849258e-09
-1.0151021e-09
-9.642947e-10
-9.0778817e-10
-8.6116951e-10
-8.1239834e-10
-7.711014e-10
-7.3026871e-10
-6.9573484e-10
-6.5986594e-10
-6.3069949e-10
-5.9916793e-10
-5.7437139e-10
-5.4693316e-10
-5.2463258e-10
-5.0168374e-10
-4.8266752e-10
-4.4250588e-10
-4.377561e-10
-4.3180504e-10
-4.2710669e-10
-4.2195967e-10
-4.1810362e-10
-4.1383235e-10
-4.1058946e-10
-4.0725246e-10
-4.0454798e-10
-4.0209871e-10
-4.0004056e-10
-3.9828774e-10
-3.9688608e-10
-3.963185e-10
-3.9618403e-10
-3.9614716e-10
-3.9657179e-10
-3.9725274e-10
-3.9838461e-10
-3.9985257e-10
-4.0183803e-10
-4.0399154e-10
-4.0669444e-10
-4.0928845e-10
-4.1277325e-10
-4.1585391e-10
-4.1985079e-10
-4.2349634e-10
-4.2807771e-10
-4.3222326e-10
-4.3698732e-10
-4.415218e-10
-4.4719328e-10
-4.5220017e-10
-4.5826196e-10
-4.6357344e-10
-4.6980764e-10
-4.7539537e-10
-4.8171191e-10
-4.8753319e-10
-4.9361957e-10
-4.9946555e-10
-5.0518547e-10
-5.1046041e-10
-5.1625829e-10
-5.2169195e-10
-5.2596476e-10
-5.2948327e-10
-5.343678e-10
-5.3739496e-10
-5.3991477e-10
-5.4184157e-10
-5.4267575e-10
-5.4238192e-10
-5.411169e-10
-5.384412e-10
-5.3448702e-10
-5.2889575e-10
-5.208667e-10
-5.0861397e-10
-4.9669805e-10
-4.8092572e-10
-4.6275388e-10
-4.3562372e-10
-4.0907727e-10
-3.7124765e-10
-3.3359038e-10
-2.7857253e-10
-2.2323295e-10
-1.4033515e-10
-5.7150702e-11
7.0069536e-11
2.0788822e-10
-1.6155965e-09
-1.3848665e-09
-1.8999099e-09
-2.1739131e-09
-2.3714455e-09
-2.4553214e-09
-2.4764022e-09
-2.4444301e-09
-2.3567292e-09
-2.2643297e-09
-2.1402487e-09
-2.0350825e-09
-1.9153298e-09
-1.8149617e-09
-1.7036573e-09
-1.6152161e-09
-1.5134198e-09
-1.4368845e-09
-1.35274e-09
-1.2834897e-09
-1.2105388e-09
-1.1499554e-09
-1.0886485e-09
-1.0376321e-09
-9.8402314e-10
-9.4062519e-10
-8.9376457e-10
-8.5680444e-10
-8.1575192e-10
-7.8292234e-10
-7.4836966e-10
-7.2037614e-10
-6.6045136e-10
-6.5334124e-10
-6.4454177e-10
-6.3759695e-10
-6.3002955e-10
-6.2426078e-10
-6.1797279e-10
-6.1313479e-10
-6.0825231e-10
-6.0430026e-10
-6.0069108e-10
-5.9770171e-10
-5.9515295e-10
-5.9320028e-10
-5.9240129e-10
-5.9229218e-10
-5.9238567e-10
-5.9313124e-10
-5.9429496e-10
-5.9614861e-10
-5.9847068e-10
-6.0159227e-10
-6.0495096e-10
-6.0920284e-10
-6.1330858e-10
-6.1872454e-10
-6.2359779e-10
-6.2988282e-10
-6.3556735e-10
-6.4277253e-10
-6.4918432e-10
-6.5684913e-10
-6.6392333e-10
-6.7284888e-10
-6.8074404e-10
-6.903431e-10
-6.9879572e-10
-7.0873844e-10
-7.1767555e-10
-7.2781169e-10
-7.3715466e-10
-7.4709664e-10
-7.5656499e-10
-7.6614241e-10
-7.7506163e-10
-7.8465415e-10
-7.9371261e-10
-8.0152657e-10
-8.0840721e-10
-8.1665897e-10
-8.2280009e-10
-8.2812959e-10
-8.3268244e-10
-8.3571334e-10
-8.3731348e-10
-8.3739843e-10
-8.3560795e-10
-8.319068e-10
-8.2580621e-10
-8.1644817e-10
-8.0158315e-10
-7.8640068e-10
-7.6547972e-10
-7.4126992e-10
-7.0487891e-10
-6.6832606e-10
-6.1560212e-10
-5.6236555e-10
-4.8384094e-10
-4.0411068e-10
-2.8377456e-10
-1.6169928e-10
2.6587187e-11
2.3043973e-10
-2.2025491e-09
-1.8999968e-09
-2.6037153e-09
-2.9851887e-09
-3.2636006e-09
-3.3840594e-09
-3.418285e-09
-3.3779964e-09
-3.2645127e-09
-3.1375837e-09
-2.9683419e-09
-2.8244526e-09
-2.6599084e-09
-2.521716e-09
-2.3680456e-09
-2.2456202e-09
-2.1064809e-09
-1.9996503e-09
-1.8829606e-09
-1.7870584e-09
-1.6855273e-09
-1.6022031e-09
-1.516627e-09
-1.4460925e-09
-1.3714408e-09
-1.3111595e-09
-1.2460994e-09
-1.1946873e-09
-1.137437e-09
-1.0921107e-09
-1.0437145e-09
-1.0050724e-09
-9.2159149e-10
-9.1165513e-10
-8.9948023e-10
-8.8987708e-10
-8.7945147e-10
-8.714123e-10
-8.6274473e-10
-8.5601757e-10
-8.4930481e-10
-8.4388477e-10
-8.3891363e-10
-8.3484023e-10
-8.3135841e-10
-8.2876758e-10
-8.2769934e-10
-8.2764719e-10
-8.2793246e-10
-8.2908691e-10
-8.3085936e-10
-8.3361157e-10
-8.3698628e-10
-8.4150445e-10
-8.4634299e-10
-8.524995e-10
-8.5846505e-10
-8.6625298e-10
-8.7333213e-10
-8.8243406e-10
-8.9062948e-10
-9.0107416e-10
-9.1027691e-10
-9.2154491e-10
-9.3175524e-10
-9.4470616e-10
-9.5617994e-10
-9.701726e-10
-9.8253875e-10
-9.9710975e-10
-1.0102399e-09
-1.0251693e-09
-1.0389386e-09
-1.0537677e-09
-1.0678283e-09
-1.0823287e-09
-1.0959262e-09
-1.1104e-09
-1.1241486e-09
-1.1366268e-09
-1.1479986e-09
-1.1606811e-09
-1.1710685e-09
-1.1802929e-09
-1.1885653e-09
-1.1948227e-09
-1.1993699e-09
-1.2017437e-09
-1.2017821e-09
-1.1991209e-09
-1.1932936e-09
-1.1832245e-09
-1.1662849e-09
-1.1481389e-09
-1.1221603e-09
-1.0917846e-09
-1.0456756e-09
-9.9840403e-10
-9.2935292e-10
-8.5877805e-10
-7.5386898e-10
-6.4651916e-10
-4.8349068e-10
-3.1676448e-10
-5.8078614e-11
2.2151731e-10
-2.8059506e-09
-2.4398233e-09
-3.3396218e-09
-3.8377449e-09
-4.206715e-09
-4.3699137e-09
-4.4225922e-09
-4.3767603e-09
-4.2394562e-09
-4.0777301e-09
-3.862091e-09
-3.677932e-09
-3.4664149e-09
-3.2882817e-09
-3.0897113e-09
-2.9310557e-09
-2.7520903e-09
-2.6127642e-09
-2.4611123e-09
-2.3365632e-09
-2.2041994e-09
-2.0963536e-09
-1.9845181e-09
-1.8928514e-09
-1.7953929e-09
-1.7168012e-09
-1.6319828e-09
-1.5648711e-09
-1.4900058e-09
-1.4310986e-09
-1.3676113e-09
-1.3174004e-09
-1.2082326e-09
-1.1952075e-09
-1.1793708e-09
-1.1668905e-09
-1.1533775e-09
-1.1428786e-09
-1.1316412e-09
-1.1228701e-09
-1.1141764e-09
-1.1071756e-09
-1.1007432e-09
-1.0955152e-09
-1.0910367e-09
-1.0877677e-09
-1.0864151e-09
-1.0864535e-09
-1.0869871e-09
-1.0886173e-09
-1.0910882e-09
-1.0948617e-09
-1.0994228e-09
-1.1055108e-09
-1.1120107e-09
-1.1203069e-09
-1.1283624e-09
-1.1388139e-09
-1.1483722e-09
-1.1606422e-09
-1.1716636e-09
-1.1857616e-09
-1.1981095e-09
-1.2134573e-09
-1.22721e-09
-1.2447101e-09
-1.2602338e-09
-1.2792084e-09
-1.2960235e-09
-1.3158648e-09
-1.3337826e-09
-1.3541975e-09
-1.3730416e-09
-1.3935058e-09
-1.4128707e-09
-1.4330815e-09
-1.4521313e-09
-1.4723111e-09
-1.4915703e-09
-1.5095874e-09
-1.5263479e-09
-1.5443219e-09
-1.5598828e-09
-1.5739176e-09
-1.5868561e-09
-1.5972532e-09
-1.6057142e-09
-1.6112737e-09
-1.6140898e-09
-1.6133112e-09
-1.6086616e-09
-1.5986759e-09
-1.5804832e-09
-1.5600165e-09
-1.5295919e-09
-1.4934872e-09
-1.4380215e-09
-1.3801878e-09
-1.2946811e-09
-1.2063486e-09
-1.0741596e-09
-9.3801414e-10
-7.3015596e-10
-5.1626518e-10
-1.8293808e-10
1.767857e-10
-3.4709529e-09
-3.050981e-09
-4.169634e-09
-4.8052672e-09
-5.284722e-09
-5.5023715e-09
-5.582448e-09
-5.534833e-09
-5.3749582e-09
-5.1759638e-09
-4.9092554e-09
-4.6800624e-09
-4.4154556e-09
-4.191785e-09
-3.9417817e-09
-3.7413452e-09
-3.5163622e-09
-3.339288e-09
-3.146924e-09
-2.9889839e-09
-2.8205334e-09
-2.6839793e-09
-2.5413071e-09
-2.4247906e-09
-2.3004843e-09
-2.200319e-09
-2.092191e-09
-2.0065445e-09
-1.910862e-09
-1.835905e-09
-1.7545404e-09
-1.690656e-09
-1.5510225e-09
-1.5343368e-09
-1.5141827e-09
-1.4983199e-09
-1.4811856e-09
-1.4677966e-09
-1.4535451e-09
-1.4423748e-09
-1.4313558e-09
-1.4225082e-09
-1.4143766e-09
-1.407816e-09
-1.4021882e-09
-1.3981403e-09
-1.3964678e-09
-1.3966509e-09
-1.3975316e-09
-1.3997695e-09
-1.4031147e-09
-1.4081556e-09
-1.4141769e-09
-1.4221898e-09
-1.4307238e-09
-1.4416398e-09
-1.4522546e-09
-1.4659659e-09
-1.478559e-09
-1.49471e-09
-1.5091958e-09
-1.5277799e-09
-1.5439893e-09
-1.5643618e-09
-1.5824735e-09
-1.6055709e-09
-1.6260833e-09
-1.6512041e-09
-1.6735198e-09
-1.6998877e-09
-1.7237479e-09
-1.7509857e-09
-1.7761537e-09
-1.803669e-09
-1.8296855e-09
-1.8570807e-09
-1.8830158e-09
-1.9104225e-09
-1.9366916e-09
-1.9618073e-09
-1.9855292e-09
-2.0103351e-09
-2.0326582e-09
-2.0530505e-09
-2.0722312e-09
-2.0882521e-09
-2.1021558e-09
-2.1122797e-09
-2.1192802e-09
-2.1215862e-09
-2.1193206e-09
-2.1103883e-09
-2.0918312e-09
-2.0696247e-09
-2.0351173e-09
-1.9933164e-09
-1.9281126e-09
-1.8589763e-09
-1.7554442e-09
-1.6473361e-09
-1.4844459e-09
-1.3156398e-09
-1.0565906e-09
-7.8857412e-10
-3.693362e-10
8.2506493e-11
-4.1455508e-09
-3.6953705e-09
-5.0390114e-09
-5.826761e-09
-6.4329757e-09
-6.7159135e-09
-6.8334468e-09
-6.7899842e-09
-6.6121098e-09
-6.3768775e-09
-6.0585064e-09
-5.7827667e-09
-5.4625173e-09
-5.1905769e-09
-4.8857141e-09
-4.6403591e-09
-4.3657359e-09
-4.1477055e-09
-3.9110248e-09
-3.7166785e-09
-3.5087064e-09
-3.3406747e-09
-3.1640911e-09
-3.0201934e-09
-2.8662658e-09
-2.7422702e-09
-2.608356e-09
-2.5021859e-09
-2.3834274e-09
-2.290672e-09
-2.1894404e-09
-2.1103843e-09
-1.9368212e-09
-1.9160772e-09
-1.8911529e-09
-1.8715648e-09
-1.8504538e-09
-1.8338887e-09
-1.8163281e-09
-1.8025227e-09
-1.7889532e-09
-1.7780894e-09
-1.7681138e-09
-1.7601202e-09
-1.7532623e-09
-1.7483861e-09
-1.7463883e-09
-1.7467837e-09
-1.748122e-09
-1.751101e-09
-1.7554837e-09
-1.762013e-09
-1.7697349e-09
-1.7799792e-09
-1.7908648e-09
-1.8048074e-09
-1.8183788e-09
-1.8358527e-09
-1.8519491e-09
-1.872582e-09
-1.8910711e-09
-1.9148457e-09
-1.9355244e-09
-1.9617242e-09
-1.9848908e-09
-2.0144763e-09
-2.0407764e-09
-2.0730373e-09
-2.1017544e-09
-2.1357284e-09
-2.1665278e-09
-2.2017488e-09
-2.2343289e-09
-2.2701352e-09
-2.3039902e-09
-2.3398753e-09
-2.373972e-09
-2.4099679e-09
-2.4446e-09
-2.4782319e-09
-2.5103593e-09
-2.5434243e-09
-2.5739898e-09
-2.6022012e-09
-2.6291358e-09
-2.6522216e-09
-2.6730806e-09
-2.6891612e-09
-2.7018056e-09
-2.7084873e-09
-2.7099546e-09
-2.7032252e-09
-2.6854773e-09
-2.6624254e-09
-2.6246497e-09
-2.5776808e-09
-2.5030813e-09
-2.4226525e-09
-2.3006387e-09
-2.1719049e-09
-1.9766118e-09
-1.7730703e-09
-1.459231e-09
-1.1330417e-09
-6.212611e-10
-7.0305836e-11
-4.8065282e-09
-4.3614451e-09
-5.9273775e-09
-6.8815309e-09
-7.6310011e-09
-7.9909463e-09
-8.1577584e-09
-8.1261826e-09
-7.9368985e-09
-7.6683418e-09
-7.2996553e-09
-6.9772691e-09
-6.6002462e-09
-6.2783522e-09
-5.9162618e-09
-5.6236222e-09
-5.2964968e-09
-5.0348682e-09
-4.7508228e-09
-4.5174737e-09
-4.2669706e-09
-4.0649864e-09
-3.8517231e-09
-3.6781381e-09
-3.4920409e-09
-3.3421292e-09
-3.1801247e-09
-3.0515708e-09
-2.9076144e-09
-2.795412e-09
-2.6724313e-09
-2.5767815e-09
-2.3659566e-09
-2.3407953e-09
-2.3106884e-09
-2.2870656e-09
-2.2616629e-09
-2.2416706e-09
-2.2205417e-09
-2.2038949e-09
-2.1875824e-09
-2.1745621e-09
-2.1626281e-09
-2.1531295e-09
-2.1449923e-09
-2.1392653e-09
-2.1369612e-09
-2.1376587e-09
-2.139593e-09
-2.1434779e-09
-2.1490875e-09
-2.1573553e-09
-2.1670466e-09
-2.1798593e-09
-2.1934425e-09
-2.2108514e-09
-2.2278081e-09
-2.249585e-09
-2.2696865e-09
-2.2954447e-09
-2.3185127e-09
-2.3482305e-09
-2.3740283e-09
-2.4069112e-09
-2.435877e-09
-2.4729022e-09
-2.505842e-09
-2.546303e-09
-2.5823822e-09
-2.6251137e-09
-2.663916e-09
-2.7083598e-09
-2.7495159e-09
-2.7949388e-09
-2.8379029e-09
-2.8836782e-09
-2.9273057e-09
-2.9733534e-09
-3.0178036e-09
-3.0614756e-09
-3.1035623e-09
-3.1464326e-09
-3.1868376e-09
-3.2244474e-09
-3.2607768e-09
-3.2924934e-09
-3.3219565e-09
-3.3455162e-09
-3.3654078e-09
-3.377894e-09
-3.3845944e-09
-3.381352e-09
-3.3657531e-09
-3.3428995e-09
-3.3028424e-09
-3.2513941e-09
-3.1679426e-09
-3.076408e-09
-2.9356911e-09
-2.7857231e-09
-2.5566441e-09
-2.3166091e-09
-1.9448723e-09
-1.5570038e-09
-9.4693186e-10
-2.9089091e-10
-5.4579063e-09
-5.0698081e-09
-6.8566619e-09
-7.9998846e-09
-8.9174849e-09
-9.3718501e-09
-9.6052395e-09
-9.5966679e-09
-9.4048655e-09
-9.1068617e-09
-8.6892687e-09
-8.3196137e-09
-7.8835923e-09
-7.50879e-09
-7.0854258e-09
-6.7415914e-09
-6.3572439e-09
-6.0477239e-09
-5.711385e-09
-5.4348234e-09
-5.13697e-09
-4.8970544e-09
-4.6426861e-09
-4.4357349e-09
-4.2134042e-09
-4.0342503e-09
-3.8404896e-09
-3.6865908e-09
-3.5140628e-09
-3.3797923e-09
-3.2320834e-09
-3.1175741e-09
-2.8641903e-09
-2.8340569e-09
-2.7981221e-09
-2.769976e-09
-2.7397832e-09
-2.7159703e-09
-2.690866e-09
-2.6710555e-09
-2.6517028e-09
-2.6363099e-09
-2.6222416e-09
-2.6111276e-09
-2.6016403e-09
-2.5950383e-09
-2.5924734e-09
-2.5936223e-09
-2.5963745e-09
-2.6014377e-09
-2.6085851e-09
-2.6189962e-09
-2.6310922e-09
-2.6470177e-09
-2.663855e-09
-2.685434e-09
-2.7064602e-09
-2.733401e-09
-2.7583063e-09
-2.7902108e-09
-2.8187699e-09
-2.8556196e-09
-2.8875629e-09
-2.9284749e-09
-2.964411e-09
-3.0103742e-09
-3.051292e-09
-3.1016152e-09
-3.146558e-09
-3.1998434e-09
-3.2483041e-09
-3.3038954e-09
-3.3554322e-09
-3.4125183e-09
-3.4665493e-09
-3.5243677e-09
-3.5796245e-09
-3.6379598e-09
-3.6944456e-09
-3.7504686e-09
-3.8048562e-09
-3.8598664e-09
-3.9125057e-09
-3.9618647e-09
-4.0100193e-09
-4.0526735e-09
-4.093148e-09
-4.1263913e-09
-4.1558286e-09
-4.1761443e-09
-4.1901689e-09
-4.1921589e-09
-4.1804826e-09
-4.159157e-09
-4.1179852e-09
-4.0627694e-09
-3.9708436e-09
-3.8680416e-09
-3.7076834e-09
-3.5349928e-09
-3.2692306e-09
-2.9892383e-09
-2.5537313e-09
-2.0977217e-09
-1.3788664e-09
-6.0682858e-10
-6.0358531e-09
-5.7672268e-09
-7.7605627e-09
-9.1022792e-09
-1.0205524e-08
-1.0769023e-08
-1.1086434e-08
-1.1114074e-08
-1.0931803e-08
-1.0612882e-08
-1.0153281e-08
-9.7402495e-09
-9.2480243e-09
-8.8214591e-09
-8.3372289e-09
-7.9418181e-09
-7.4992854e-09
-7.1405848e-09
-6.7501942e-09
-6.4287459e-09
-6.0814361e-09
-5.8017183e-09
-5.5040512e-09
-5.2618311e-09
-5.0010949e-09
-4.7908738e-09
-4.5633019e-09
-4.3823621e-09
-4.1792965e-09
-4.0214174e-09
-3.8472031e-09
-3.7124755e-09
-3.4131837e-09
-3.3778025e-09
-3.3357228e-09
-3.30282e-09
-3.2676196e-09
-3.2398214e-09
-3.2105755e-09
-3.187473e-09
-3.1649813e-09
-3.1471646e-09
-3.1309462e-09
-3.1182403e-09
-3.1074617e-09
-3.1000655e-09
-3.0973651e-09
-3.0991619e-09
-3.1029915e-09
-3.1095405e-09
-3.1185524e-09
-3.131509e-09
-3.1464293e-09
-3.1659781e-09
-3.1865802e-09
-3.2129643e-09
-3.2386721e-09
-3.2715404e-09
-3.3019545e-09
-3.3409042e-09
-3.375755e-09
-3.420778e-09
-3.4597675e-09
-3.5098883e-09
-3.5538207e-09
-3.6100353e-09
-3.660102e-09
-3.7217431e-09
-3.7768664e-09
-3.8422832e-09
-3.9018594e-09
-3.9702975e-09
-4.0338136e-09
-4.1043815e-09
-4.1712247e-09
-4.243015e-09
-4.3117886e-09
-4.3844289e-09
-4.4549622e-09
-4.5254444e-09
-4.5942796e-09
-4.6635872e-09
-4.7306869e-09
-4.7939919e-09
-4.8562675e-09
-4.9120599e-09
-4.9658689e-09
-5.0109507e-09
-5.0522196e-09
-5.082422e-09
-5.1059461e-09
-5.1150417e-09
-5.1092927e-09
-5.0911029e-09
-5.050401e-09
-4.9926054e-09
-4.8933004e-09
-4.7798207e-09
-4.6000118e-09
-4.4043124e-09
-4.1007683e-09
-3.7792055e-09
-3.2769109e-09
-2.749315e-09
-1.9158997e-09
-1.0221508e-09
-6.5022068e-09
-6.4309349e-09
-8.6066443e-09
-1.0147127e-08
-1.1448579e-08
-1.2134097e-08
-1.2553064e-08
-1.2631044e-08
-1.2471852e-08
-1.214338e-08