/*--------------------------------*- C++ -*----------------------------------*\
| =========                 |                                                 |
| \\      /  F ield         | OpenFOAM: The Open Source CFD Toolbox           |
|  \\    /   O peration     | Version:  2406                                  |
|   \\  /    A nd           | Website:  www.openfoam.com                      |
|    \\/     M anipulation  |                                                 |
\*---------------------------------------------------------------------------*/
FoamFile
{
    version     2.0;
    format      ascii;
    arch        "LSB;label=32;scalar=64";
    class       volScalarField;
    location    "0";
    object      initialResidual:Ux;
}
// * * * * * * * * * * * * * * * * * * * * * * * * * * * * * * * * * * * * * //

dimensions      [0 0 0 0 0 0 0];

internalField   nonuniform List<scalar> 
24384
(
-3.5158765e-13
-2.0084016e-13
6.5081208e-13
1.1792206e-12
1.1338338e-11
1.030293e-11
1.7912936e-11
8.4943982e-11
1.3424739e-10
4.087746e-10
8.9084955e-10
2.4709272e-09
7.8943562e-09
1.6748756e-08
-3.9131732e-13
-2.6172481e-13
1.1747947e-12
1.7961617e-12
2.7959381e-11
2.9802994e-11
5.0868355e-11
2.7402146e-10
4.4892285e-10
1.4070416e-09
3.1304854e-09
8.5352929e-09
2.7839798e-08
5.8886756e-08
-2.840633e-13
-3.0996669e-13
2.2449025e-12
3.2742903e-12
5.7646612e-11
5.4619222e-11
9.6161248e-11
4.7385543e-10
7.3701117e-10
2.2241946e-09
4.7697246e-09
1.2851146e-08
4.1193257e-08
8.680929e-08
-2.1964375e-13
-4.3340845e-13
3.0761498e-12
4.8670404e-12
7.6566932e-11
6.6846833e-11
1.2179967e-10
5.5991395e-10
8.5338026e-10
2.5259228e-09
5.2706611e-09
1.4435256e-08
4.5043608e-08
9.5014883e-08
-1.5687967e-13
-4.5623771e-13
3.4337171e-12
5.5101855e-12
8.208205e-11
7.2134447e-11
1.3354014e-10
5.8839746e-10
8.9513118e-10
2.6136841e-09
5.3245624e-09
1.4978669e-08
4.5255772e-08
9.5788805e-08
-8.113275e-14
-3.5272398e-13
3.6815859e-12
5.8158871e-12
7.9999187e-11
7.4608212e-11
1.3854126e-10
5.8928333e-10
9.0436971e-10
2.6013477e-09
5.1735336e-09
1.5055976e-08
4.3773315e-08
9.3193803e-08
-1.3134959e-14
-1.9963544e-13
3.7809008e-12
6.3051342e-12
7.3701107e-11
7.5366205e-11
1.390041e-10
5.7233142e-10
8.9350894e-10
2.5265152e-09
4.9165103e-09
1.4851369e-08
4.1446476e-08
8.8951619e-08
4.5408892e-14
-3.5191795e-14
3.7058576e-12
7.1859778e-12
6.4441062e-11
7.5159006e-11
1.3635162e-10
5.4075488e-10
8.6669793e-10
2.3961081e-09
4.5677931e-09
1.4417099e-08
3.83979e-08
8.3354199e-08
1.0076981e-13
1.0802588e-13
3.5905095e-12
8.5248902e-12
5.336932e-11
7.4490707e-11
1.3155407e-10
4.9991148e-10
8.2833875e-10
2.2240128e-09
4.1667347e-09
1.379687e-08
3.4971465e-08
7.7044252e-08
1.531526e-13
2.0306108e-13
3.3204037e-12
9.3623512e-12
4.1904704e-11
7.3959568e-11
1.2541324e-10
4.5446455e-10
7.8281859e-10
2.0233709e-09
3.7383509e-09
1.3021962e-08
3.1352729e-08
7.0350103e-08
1.8428367e-13
2.7844096e-13
2.9056601e-12
9.0759785e-12
3.2341367e-11
7.1573742e-11
1.1818385e-10
4.0556464e-10
7.3119545e-10
1.796773e-09
3.2844238e-09
1.2071995e-08
2.7512836e-08
6.3190875e-08
2.4011422e-13
3.9468789e-13
2.1603359e-12
8.2578497e-12
2.5417186e-11
6.6606371e-11
1.1063348e-10
3.5770195e-10
6.7812594e-10
1.5679997e-09
2.8490572e-09
1.1014761e-08
2.3777569e-08
5.6154794e-08
2.9383704e-13
3.9627969e-13
1.9938701e-12
7.0090879e-12
1.9411977e-11
5.8924698e-11
1.0453924e-10
3.1177467e-10
6.2513624e-10
1.3510167e-09
2.4531727e-09
9.900768e-09
2.0305304e-08
4.9568536e-08
3.3761175e-13
5.5194846e-13
1.830822e-12
5.7399671e-12
1.3950412e-11
5.0597521e-11
9.7042697e-11
2.6804248e-10
5.7176773e-10
1.1524894e-09
2.1031462e-09
8.7641072e-09
1.7163188e-08
4.3580502e-08
3.8484281e-13
6.5452771e-13
2.1018983e-12
4.1244013e-12
9.9979308e-12
3.9809746e-11
8.1313835e-11
2.2586544e-10
5.1017738e-10
9.594625e-10
1.7715992e-09
7.5118281e-09
1.4135665e-08
3.7891052e-08
4.1611914e-13
7.4299422e-13
2.3068373e-12
3.8263329e-12
7.5852888e-12
2.8789695e-11
6.3586555e-11
1.8836799e-10
4.4038209e-10
8.0346364e-10
1.504168e-09
6.3465516e-09
1.1709833e-08
3.2331248e-08
4.2810036e-13
7.9874182e-13
2.3997323e-12
4.4758265e-12
5.9877725e-12
1.6638798e-11
4.3650598e-11
1.5182838e-10
3.6716636e-10
6.7686204e-10
1.2666366e-09
5.2752134e-09
9.7007619e-09
2.6972055e-08
4.2693924e-13
6.5323155e-13
2.275351e-12
4.3532899e-12
5.7651013e-12
1.3614525e-11
2.4498108e-11
9.898072e-11
2.8612215e-10
5.0022599e-10
1.0572187e-09
4.1096049e-09
7.6313702e-09
2.1464447e-08
3.5136105e-13
4.211457e-13
1.8211197e-12
3.5572319e-12
6.2232261e-12
1.007796e-11
1.1750064e-11
5.423106e-11
2.1043106e-10
3.595233e-10
8.5401785e-10
3.2239718e-09
6.2288103e-09
1.7066109e-08
1.3354152e-13
9.0110468e-14
2.7732234e-13
1.7816489e-12
2.5827278e-12
6.2242933e-12
8.0910218e-12
1.9905979e-11
7.0307771e-11
2.4599937e-10
5.8431075e-10
2.2958378e-09
4.8250782e-09
1.289382e-08
-7.1671698e-14
-5.8648536e-13
-4.4298659e-13
1.5164225e-13
-7.9458478e-13
4.3998223e-12
5.3618081e-12
1.103838e-11
2.0798915e-11
1.0276091e-10
3.4309363e-10
1.5341078e-09
3.6829454e-09
9.6916792e-09
-4.6761697e-14
-7.2180204e-13
-6.4892465e-13
-3.7469125e-14
-9.0027566e-13
4.5448595e-12
5.6035076e-12
1.2954881e-11
2.3453635e-11
3.9724583e-11
1.5752078e-10
7.8116074e-10
2.5848685e-09
6.7645235e-09
-9.8863152e-15
-8.1542115e-13
-4.2832692e-13
-2.6364857e-13
-5.8052147e-13
5.1224325e-12
6.6639639e-12
1.494555e-11
2.400943e-11
3.9499631e-11
8.3727121e-11
3.1403945e-10
1.6032093e-09
4.3606459e-09
-2.5712899e-15
-7.1575167e-13
-4.9538146e-13
-5.7623766e-14
-1.0731336e-13
5.6417618e-12
7.6326229e-12
1.7292872e-11
2.7586275e-11
4.5760178e-11
6.8743993e-11
1.7421812e-10
7.0090234e-10
2.5005722e-09
5.1713703e-14
-7.7397102e-13
-2.7739488e-13
4.7400283e-13
-9.2054125e-13
7.0667705e-12
1.0014324e-11
1.827301e-11
3.1737887e-11
5.3110568e-11
7.5805317e-11
1.9057575e-10
3.1601829e-10
1.1563722e-09
7.3174227e-14
-7.4114783e-13
-4.2263208e-14
5.5079496e-13
-3.316868e-13
7.8282183e-12
1.1222405e-11
2.142629e-11
3.6179168e-11
6.0482555e-11
9.1452315e-11
1.9806172e-10
2.8958326e-10
7.0206536e-10
1.3197643e-14
-4.3472418e-13
-2.4382412e-13
7.4787149e-13
1.0565457e-12
8.0965993e-12
1.2574766e-11
2.5132037e-11
4.0829932e-11
6.9406308e-11
1.1313681e-10
1.888795e-10
3.2898556e-10
9.1547103e-10
1.5795572e-13
-8.5226802e-13
8.7399063e-13
9.7121062e-13
-2.6881541e-13
1.0615357e-11
1.6025998e-11
2.658981e-11
4.6802332e-11
7.9868661e-11
1.3034303e-10
2.0969386e-10
3.7242057e-10
1.033796e-09
1.8708207e-13
-8.4357976e-13
1.2463218e-12
1.2882847e-12
1.6321179e-13
1.1985154e-11
1.8521259e-11
3.0024315e-11
5.2949129e-11
9.1219389e-11
1.4557195e-10
2.4942045e-10
4.3545411e-10
1.0315941e-09
2.3289979e-13
-9.9270911e-13
1.9467061e-12
1.7693667e-12
-3.6052918e-13
1.4319752e-11
2.2211213e-11
3.2819035e-11
6.0007998e-11
1.0461145e-10
1.6691875e-10
2.777793e-10
5.0641285e-10
1.0844801e-09
2.0455629e-13
-8.4270382e-13
2.0654031e-12
2.2369632e-12
8.3263817e-13
1.5498271e-11
2.464739e-11
3.7599546e-11
6.7109948e-11
1.1784535e-10
1.8788113e-10
3.1211684e-10
5.7674107e-10
1.120344e-09
3.3122548e-13
-1.3554978e-12
3.338286e-12
2.9287322e-12
-1.042765e-12
1.927261e-11
3.0208131e-11
3.9371711e-11
7.5698282e-11
1.3449951e-10
2.1144621e-10
3.5026997e-10
6.4999341e-10
1.1968752e-09
3.4515695e-13
-1.418909e-12
3.844073e-12
3.6485175e-12
-1.281036e-12
2.1712204e-11
3.4758417e-11
4.2114977e-11
8.3676866e-11
1.4985319e-10
2.3430881e-10
3.8404754e-10
7.1831573e-10
1.254269e-09
3.1584843e-13
-1.4627553e-12
4.1618764e-12
4.3099679e-12
-2.6463547e-13
2.3647678e-11
3.8591275e-11
4.7156536e-11
9.2654536e-11
1.671008e-10
2.6011589e-10
4.2564691e-10
7.9132452e-10
1.3054249e-09
3.5768534e-13
-1.6802865e-12
4.6667797e-12
4.6206252e-12
1.1780516e-12
2.4857559e-11
4.1119573e-11
5.200362e-11
1.0031755e-10
1.7973616e-10
2.8752824e-10
4.3320549e-10
8.2538443e-10
1.5322053e-09
2.6982582e-13
-1.4631632e-12
4.7572745e-12
5.7601888e-12
5.5361585e-13
2.7628282e-11
4.7359351e-11
5.2655258e-11
1.0809925e-10
1.9647271e-10
3.0687613e-10
4.682554e-10
8.5399379e-10
1.6191358e-09
1.3748647e-13
-1.1474489e-12
4.10883e-12
5.7588647e-12
4.8222205e-12
2.6080532e-11
4.5944704e-11
5.954961e-11
1.1311831e-10
2.0118237e-10
3.2530451e-10
4.6864031e-10
8.7503674e-10
1.5985403e-09
2.05475e-13
-1.2203793e-12
4.5229091e-12
6.0297567e-12
5.125737e-12
2.6886913e-11
4.6577473e-11
6.0559426e-11
1.1449231e-10
2.0433523e-10
3.2277964e-10
4.8899347e-10
8.6355551e-10
1.3024206e-09
-1.111528e-14
-3.8042339e-13
3.0415752e-12
5.6832285e-12
9.8049534e-12
2.3004224e-11
4.017583e-11
6.4973785e-11
1.1158227e-10
1.9153552e-10
3.1585663e-10
4.5238368e-10
7.8861986e-10
1.1367531e-09
-4.7543613e-14
-2.252422e-13
2.4654665e-12
5.1316084e-12
9.2532455e-12
2.0175745e-11
3.4359981e-11
5.8216189e-11
9.7711439e-11
1.6719546e-10
2.7089244e-10
3.9504148e-10
6.1528216e-10
7.1750564e-10
-1.6439724e-13
6.2958924e-13
7.0642403e-13
3.6918908e-12
1.163778e-11
1.2618317e-11
2.0161109e-11
5.1681979e-11
7.5616741e-11
1.1824742e-10
2.0703793e-10
2.7047451e-10
3.6605498e-10
2.2190172e-10
-3.1335564e-14
5.5379732e-13
-4.5231965e-13
1.5254083e-12
6.9409016e-12
4.313766e-12
5.820493e-12
2.5189898e-11
3.2664604e-11
4.6153916e-11
8.1977924e-11
7.699486e-11
-4.3773224e-11
-6.0509374e-10
-7.2315474e-14
4.9737624e-13
-2.1064413e-12
-1.9276386e-12
2.4219748e-12
-9.7249497e-12
-1.8707711e-11
-9.4314749e-12
-2.8746217e-11
-6.4755954e-11
-8.8879463e-11
-2.2710478e-10
-6.5224984e-10
-1.5811478e-09
-1.1449473e-13
7.8144408e-13
-5.3676385e-12
-7.13137e-12
-2.4607909e-12
-3.0758067e-11
-5.5790227e-11
-5.5084096e-11
-1.1403591e-10
-2.2339418e-10
-3.2332966e-10
-6.4793661e-10
-1.3885568e-09
-2.7809719e-09
4.9075362e-14
-1.091589e-12
-5.038417e-12
-1.3272149e-11
-2.5489757e-11
-4.8956587e-11
-8.5804669e-11
-1.4421749e-10
-2.3754156e-10
-4.222699e-10
-6.6312846e-10
-1.1872263e-09
-2.3330557e-09
-4.3848554e-09
9.0818849e-14
-1.8498593e-12
-8.7872535e-12
-2.1591331e-11
-4.0726549e-11
-7.9956479e-11
-1.2814852e-10
-2.3882085e-10
-3.9052644e-10
-6.1745381e-10
-1.0607532e-09
-1.7680608e-09
-3.3794061e-09
-6.0972099e-09
1.3761348e-13
-2.7357018e-12
-1.3032513e-11
-3.2017212e-11
-6.0279126e-11
-1.1798521e-10
-1.9001561e-10
-3.3569976e-10
-5.8219264e-10
-8.8609218e-10
-1.561099e-09
-2.4819342e-09
-4.7333824e-09
-8.2426843e-09
1.7391689e-13
-3.4462502e-12
-1.6435667e-11
-4.0384759e-11
-7.5857672e-11
-1.4822259e-10
-2.4306557e-10
-4.1506642e-10
-7.3040933e-10
-1.0494296e-09
-2.0068244e-09
-3.0729153e-09
-5.829286e-09
-1.0014147e-08
5.8523237e-08
1.0413009e-07
1.5492145e-07
2.0539476e-07
2.6714224e-07
3.1615536e-07
3.6961432e-07
4.0892854e-07
4.4837858e-07
4.7562591e-07
5.0059042e-07
5.165389e-07
5.2962622e-07
5.3667437e-07
5.4071496e-07
5.410212e-07
5.3842726e-07
5.3388225e-07
5.2660845e-07
5.1865497e-07
5.0814699e-07
4.9792097e-07
4.8530765e-07
4.7371502e-07
4.5980268e-07
4.4749859e-07
4.3286955e-07
4.2034703e-07
4.0542604e-07
3.9303436e-07
3.7811871e-07
3.6613528e-07
3.3681881e-07
3.3412373e-07
3.3074969e-07
3.2784907e-07
3.2434938e-07
3.212678e-07
3.1768205e-07
3.1444324e-07
3.1080203e-07
3.0742944e-07
3.0376324e-07
3.0027572e-07
2.9660531e-07
2.930204e-07
2.8936785e-07
2.8570791e-07
2.820934e-07
2.7837148e-07
2.7480592e-07
2.7103441e-07
2.6752831e-07
2.6371885e-07
2.6028055e-07
2.5644255e-07
2.5307739e-07
2.4921922e-07
2.4593079e-07
2.4205744e-07
2.3884737e-07
2.3496368e-07
2.3181295e-07
2.279583e-07
2.2482119e-07
2.2105068e-07
2.1790194e-07
2.142141e-07
2.1105502e-07
2.0744608e-07
2.0427537e-07
2.0074003e-07
1.9755547e-07
1.9408745e-07
1.9088562e-07
1.874774e-07
1.8425359e-07
1.8089894e-07
1.7764909e-07
1.7433746e-07
1.7105232e-07
1.6777736e-07
1.6445256e-07
1.612019e-07
1.5782752e-07
1.5459152e-07
1.5115729e-07
1.4792488e-07
1.4441999e-07
1.4117879e-07
1.375915e-07
1.3432784e-07
1.3063801e-07
1.2733835e-07
1.2353515e-07
1.2018065e-07
1.1623462e-07
1.1280477e-07
1.0869155e-07
1.0515785e-07
1.0083883e-07
9.7163401e-08
9.2580188e-08
8.8709085e-08
8.3776003e-08
7.9607577e-08
2.0674911e-07
3.6586463e-07
5.4183487e-07
7.1691676e-07
9.3030174e-07
1.099094e-06
1.2826011e-06
1.4170857e-06
1.5515734e-06
1.6440693e-06
1.7284536e-06
1.7820512e-06
1.8256834e-06
1.8488192e-06
1.8615616e-06
1.861717e-06
1.8519018e-06
1.8355835e-06
1.8098963e-06
1.7820493e-06
1.7454331e-06
1.7099299e-06
1.6662317e-06
1.62615e-06
1.5781116e-06
1.5356771e-06
1.4852704e-06
1.4421553e-06
1.3908145e-06
1.3482029e-06
1.2969313e-06
1.25576e-06
1.1551617e-06
1.1458605e-06
1.1342282e-06
1.124236e-06
1.1121885e-06
1.1015867e-06
1.0892567e-06
1.0781263e-06
1.0656193e-06
1.0540398e-06
1.0414567e-06
1.0294917e-06
1.0169034e-06
1.0046129e-06
9.9209319e-07
9.7955219e-07
9.6717028e-07
9.5442379e-07
9.4221568e-07
9.2930527e-07
9.1730574e-07
9.0427043e-07
8.9250693e-07
8.7937844e-07
8.6786859e-07
8.5467388e-07
8.4342878e-07
8.301847e-07
8.1920861e-07
8.0592915e-07
7.9515558e-07
7.8197492e-07
7.7124572e-07
7.5834868e-07
7.4757622e-07
7.3495632e-07
7.2414242e-07
7.1178419e-07
7.0092166e-07
6.8880376e-07
6.7788124e-07
6.659789e-07
6.5498058e-07
6.4326422e-07
6.3217018e-07
6.2061226e-07
6.0940075e-07
5.9796276e-07
5.8659885e-07
5.7524859e-07
5.6370628e-07
5.5239949e-07
5.4063612e-07
5.2933059e-07
5.17302e-07
5.0595164e-07
4.9360893e-07
4.8216312e-07
4.6945318e-07
4.5785699e-07
4.4470437e-07
4.3290141e-07
4.1924768e-07
4.0716881e-07
3.9291593e-07
3.8048644e-07
3.655381e-07
3.5266465e-07
3.3690053e-07
3.2347074e-07
3.0672338e-07
2.9259271e-07
2.7465036e-07
2.5962209e-07
3.0419746e-07
5.4028728e-07
8.0052343e-07
1.060403e-06
1.3778053e-06
1.629367e-06
1.9033341e-06
2.1044385e-06
2.3059112e-06
2.4446709e-06
2.5714876e-06
2.6521965e-06
2.7180781e-06
2.7531923e-06
2.7727914e-06
2.7734439e-06
2.7592109e-06
2.7351367e-06
2.6970674e-06
2.6556991e-06
2.6012286e-06
2.5483791e-06
2.4832892e-06
2.4235758e-06
2.3519959e-06
2.2887668e-06
2.2136619e-06
2.1494265e-06
2.0729467e-06
2.0094833e-06
1.9331302e-06
1.8718342e-06
1.7220318e-06
1.7082298e-06
1.6909854e-06
1.676187e-06
1.6583632e-06
1.6426957e-06
1.6244933e-06
1.6080835e-06
1.5896667e-06
1.5726381e-06
1.5541582e-06
1.5366132e-06
1.5181807e-06
1.5002139e-06
1.48194e-06
1.4636673e-06
1.445658e-06
1.4271544e-06
1.4094653e-06
1.3907977e-06
1.3734819e-06
1.3547136e-06
1.337813e-06
1.3189976e-06
1.3025405e-06
1.2837229e-06
1.2677266e-06
1.2489389e-06
1.2334107e-06
1.2146787e-06
1.1995263e-06
1.1810458e-06
1.1660498e-06
1.1480816e-06
1.1331248e-06
1.1156623e-06
1.1007536e-06
1.0837767e-06
1.0689121e-06
1.0523912e-06
1.0375603e-06
1.0214615e-06
1.006648e-06
9.9093056e-07
9.7611245e-07
9.6073647e-07
9.4588701e-07
9.3080034e-07
9.1587793e-07
9.0103132e-07
8.8600007e-07
8.7133317e-07
8.5613687e-07
8.4158615e-07
8.2616414e-07
8.1166052e-07
7.95942e-07
7.81408e-07
7.6531209e-07
7.5066131e-07
7.3407622e-07
7.1921242e-07
7.0203224e-07
6.8683855e-07
6.6890232e-07
6.5323998e-07
6.3436113e-07
6.1804911e-07
5.979822e-07
5.807855e-07
5.5917043e-07
5.4075609e-07
5.1708121e-07
4.9695283e-07
3.3159194e-07
5.9473005e-07
8.8431728e-07
1.1743375e-06
1.5299897e-06
1.8129075e-06
2.1220858e-06
2.3498291e-06
2.5789082e-06
2.7373088e-06
2.8827515e-06
2.9758745e-06
3.0525425e-06
3.0940892e-06
3.1182792e-06
3.120679e-06
3.1063718e-06
3.0805769e-06
3.0390367e-06
2.9934652e-06
2.933132e-06
2.8743768e-06
2.8018185e-06
2.7351231e-06
2.6550501e-06
2.5842331e-06
2.500034e-06
2.4279607e-06
2.3420922e-06
2.2707991e-06
2.1849803e-06
2.1160598e-06
1.9472272e-06
1.9318786e-06
1.9126893e-06
1.8962127e-06
1.8763595e-06
1.8589021e-06
1.8386149e-06
1.8203236e-06
1.7997934e-06
1.7808101e-06
1.76021e-06
1.7406555e-06
1.7201154e-06
1.7000993e-06
1.679746e-06
1.6594011e-06
1.6393585e-06
1.6187757e-06
1.5991086e-06
1.5783662e-06
1.559137e-06
1.5383096e-06
1.5195677e-06
1.4987199e-06
1.4804999e-06
1.4596857e-06
1.442009e-06
1.4212695e-06
1.4041463e-06
1.3835142e-06
1.3668449e-06
1.3465411e-06
1.3300875e-06
1.3104003e-06
1.2940376e-06
1.2749632e-06
1.2587061e-06
1.2402252e-06
1.2240743e-06
1.2061573e-06
1.1901063e-06
1.1727181e-06
1.1567549e-06
1.1398547e-06
1.1239607e-06
1.1075067e-06
1.0916581e-06
1.0755979e-06
1.0597583e-06
1.0440397e-06
1.0281739e-06
1.0127369e-06
9.9679295e-07
9.8157177e-07
9.6549192e-07
9.5041604e-07
9.3413194e-07
9.1912267e-07
9.0255445e-07
8.8752419e-07
8.7056632e-07
8.5541455e-07
8.3795738e-07
8.2256563e-07
8.044509e-07
7.8867367e-07
7.6970857e-07
7.5335506e-07
7.3327626e-07
7.1609293e-07
6.9451045e-07
6.7612258e-07
6.5244994e-07
6.3227282e-07
3.3219997e-07
6.0308268e-07
9.0130134e-07
1.2005849e-06
1.5694646e-06
1.864241e-06
2.1877465e-06
2.42708e-06
2.6690055e-06
2.8371408e-06
2.9924198e-06
3.0925972e-06
3.1759506e-06
3.2220344e-06
3.2501829e-06
3.2549905e-06
3.242449e-06
3.2173794e-06
3.1759078e-06
3.1297897e-06
3.0682658e-06
3.0080335e-06
2.9333773e-06
2.8645592e-06
2.7817584e-06
2.7083992e-06
2.6210538e-06
2.5461953e-06
2.4569189e-06
2.3827319e-06
2.2933586e-06
2.2215375e-06
2.0450098e-06
2.0292564e-06
2.0095355e-06
1.9925819e-06
1.972134e-06
1.9541376e-06
1.9332077e-06
1.9143249e-06
1.893119e-06
1.8735004e-06
1.8522027e-06
1.8319794e-06
1.8107314e-06
1.7900204e-06
1.7689564e-06
1.7478985e-06
1.7271533e-06
1.705849e-06
1.6854932e-06
1.6640263e-06
1.6441279e-06
1.6225794e-06
1.6031924e-06
1.5816332e-06
1.5627967e-06
1.541286e-06
1.5230248e-06
1.5016091e-06
1.4839358e-06
1.4626523e-06
1.4454666e-06
1.4245469e-06
1.4076055e-06
1.3873485e-06
1.3705253e-06
1.3509297e-06
1.3342434e-06
1.3152918e-06
1.2987464e-06
1.2804103e-06
1.2640027e-06
1.246248e-06
1.2299692e-06
1.2127564e-06
1.1965909e-06
1.1798781e-06
1.1638046e-06
1.1475408e-06
1.1315273e-06
1.1156602e-06
1.0996722e-06
1.0841428e-06
1.068133e-06
1.0528756e-06
1.0367887e-06
1.0217335e-06
1.0055038e-06
9.9057275e-07
9.7412186e-07
9.5922771e-07
9.424563e-07
9.2749729e-07
9.1029379e-07
8.9515192e-07
8.7736171e-07
8.6188885e-07
8.4331821e-07
8.2732052e-07
8.0769658e-07
7.9091227e-07
7.6983413e-07
7.5186976e-07
7.2871583e-07
7.0895745e-07
3.2024778e-07
5.8963124e-07
8.8712569e-07
1.1860295e-06
1.5567557e-06
1.8546432e-06
2.1832291e-06
2.4275978e-06
2.6760475e-06
2.8497717e-06
3.0113125e-06
3.1164568e-06
3.2050088e-06
3.2550651e-06
3.2871892e-06
3.2949372e-06
3.2852258e-06
3.2621619e-06
3.2225277e-06
3.1776368e-06
3.117148e-06
3.0575169e-06
2.9832584e-06
2.9145558e-06
2.8316654e-06
2.7580592e-06
2.6702606e-06
2.5948952e-06
2.5048982e-06
2.4300277e-06
2.3397408e-06
2.2671241e-06
2.0878887e-06
2.0722654e-06
2.0526728e-06
2.0358009e-06
2.0154235e-06
1.9974662e-06
1.9765589e-06
1.957678e-06
1.9364567e-06
1.9168078e-06
1.8954637e-06
1.8751847e-06
1.8538681e-06
1.8330804e-06
1.8119301e-06
1.7907788e-06
1.7699375e-06
1.7485303e-06
1.7280732e-06
1.7064974e-06
1.6864969e-06
1.6648375e-06
1.6453512e-06
1.6236835e-06
1.6047546e-06
1.5831419e-06
1.5647978e-06
1.5432905e-06
1.5255467e-06
1.5041856e-06
1.4869438e-06
1.4659647e-06
1.4489833e-06
1.4286883e-06
1.4118429e-06
1.3922328e-06
1.3755454e-06
1.3566054e-06
1.3400829e-06
1.3217864e-06
1.3054285e-06
1.2877429e-06
1.2715436e-06
1.2544314e-06
1.2383778e-06
1.2217979e-06
1.2058713e-06
1.1897747e-06
1.1739467e-06
1.1582821e-06
1.1425194e-06
1.1272288e-06
1.111488e-06
1.0965073e-06
1.0807354e-06
1.0659954e-06
1.0501292e-06
1.0355529e-06
1.0195152e-06
1.0050161e-06
9.8871242e-07
9.7418825e-07
9.5750539e-07
9.4283814e-07
9.2562349e-07
9.1066288e-07
8.9272154e-07
8.7727127e-07
8.58322e-07
8.421128e-07
8.2174582e-07
8.0437078e-07
7.8193856e-07
7.627789e-07
3.0213877e-07
5.6446611e-07
8.5599189e-07
1.148877e-06
1.5146772e-06
1.8103788e-06
2.1383481e-06
2.3836498e-06
2.6345745e-06
2.8111737e-06
2.9765744e-06
3.0852283e-06
3.1778682e-06
3.2313882e-06
3.2673221e-06
3.2781955e-06
3.2718163e-06
3.2514242e-06
3.2145872e-06
3.1719123e-06
3.1137203e-06
3.0558834e-06
2.9834696e-06
2.9161899e-06
2.83476e-06
2.7622622e-06
2.6756077e-06
2.6010912e-06
2.5119779e-06
2.4377472e-06
2.3481318e-06
2.2759855e-06
2.0970737e-06
2.0818897e-06
2.0628084e-06
2.0463435e-06
2.0264247e-06
2.0088446e-06
1.98835e-06
1.9698195e-06
1.9489709e-06
1.9296481e-06
1.9086417e-06
1.8886689e-06
1.8676616e-06
1.8471631e-06
1.8262962e-06
1.8054187e-06
1.7848409e-06
1.7636977e-06
1.7434877e-06
1.7221679e-06
1.7024017e-06
1.6809934e-06
1.6617314e-06
1.6403126e-06
1.6216013e-06
1.6002385e-06
1.5821081e-06
1.5608545e-06
1.5433229e-06
1.522222e-06
1.5051947e-06
1.4844828e-06
1.4677234e-06
1.447701e-06
1.4310888e-06
1.4117588e-06
1.3953182e-06
1.3766681e-06
1.3604084e-06
1.3424139e-06
1.3263372e-06
1.3089674e-06
1.2930703e-06
1.2762902e-06
1.2605617e-06
1.2443312e-06
1.228755e-06
1.2130271e-06
1.1975777e-06
1.1823025e-06
1.1669479e-06
1.1520686e-06
1.1367683e-06
1.1222223e-06
1.1069254e-06
1.0926444e-06
1.0772895e-06
1.0631976e-06
1.0477085e-06
1.0337195e-06
1.0180048e-06
1.0040165e-06
9.8796153e-07
9.7385538e-07
9.5730808e-07
9.4293181e-07
9.2569532e-07
9.1085026e-07
8.9263627e-07
8.7704616e-07
8.5743678e-07
8.4068486e-07
8.1901318e-07
8.0049621e-07
2.7874611e-07
5.2933526e-07
8.1082494e-07
1.0931828e-06
1.4488152e-06
1.7383531e-06
2.0615602e-06
2.3049318e-06
2.555621e-06
2.7333854e-06
2.901253e-06
3.0126791e-06
3.1089736e-06
3.1659028e-06
3.2058699e-06
3.220283e-06
3.2178956e-06
3.2008925e-06
3.1677898e-06
3.1282354e-06
3.0734458e-06
3.018413e-06
2.949038e-06
2.8842371e-06
2.8054986e-06
2.7351693e-06
2.650892e-06
2.5782599e-06
2.4912437e-06
2.4186449e-06
2.3308802e-06
2.2601399e-06
2.0837105e-06
2.0692266e-06
2.0509775e-06
2.035189e-06
2.0160473e-06
1.9991198e-06
1.9793527e-06
1.9614522e-06
1.9412858e-06
1.9225716e-06
1.9022058e-06
1.8828232e-06
1.8624201e-06
1.8424953e-06
1.8221987e-06
1.8018785e-06
1.781841e-06
1.7612438e-06
1.7415481e-06
1.7207638e-06
1.7014888e-06
1.6806076e-06
1.6618164e-06
1.6409186e-06
1.6226609e-06
1.6018152e-06
1.5841241e-06
1.5633863e-06
1.546282e-06
1.5256983e-06
1.5090913e-06
1.4888953e-06
1.4725577e-06
1.4530449e-06
1.4368612e-06
1.4180367e-06
1.4020331e-06
1.3838871e-06
1.368075e-06
1.3505855e-06
1.3349695e-06
1.3181076e-06
1.3026861e-06
1.2864191e-06
1.2711835e-06
1.2554729e-06
1.2404085e-06
1.2252096e-06
1.2102933e-06
1.1955575e-06
1.1807588e-06
1.1664307e-06
1.1517112e-06
1.1377296e-06
1.1230401e-06
1.1093377e-06
1.094618e-06
1.0811198e-06
1.0662944e-06
1.0529142e-06
1.0378931e-06
1.0245288e-06
1.0091959e-06
9.9572748e-07
9.7992967e-07
9.6620274e-07
9.4974002e-07
9.3555302e-07
9.1813017e-07
9.0319962e-07
8.8439011e-07
8.6829122e-07
8.4741241e-07
8.2958124e-07
2.5266451e-07
4.8814073e-07
7.5672034e-07
1.0252825e-06
1.366783e-06
1.6470345e-06
1.9621108e-06
2.2011519e-06
2.44922e-06
2.6265698e-06
2.7955357e-06
2.9089321e-06
3.0083017e-06
3.0684094e-06
3.1123897e-06
3.1305172e-06
3.1324866e-06
3.119319e-06
3.0905703e-06
3.0547583e-06
3.0041513e-06
2.9526519e-06
2.8871895e-06
2.8256503e-06
2.7505247e-06
2.683164e-06
2.6022017e-06
2.5322459e-06
2.4482595e-06
2.3780584e-06
2.2930587e-06
2.2244524e-06
2.0522131e-06
2.0386212e-06
2.021442e-06
2.0065303e-06
1.9884034e-06
1.9723344e-06
1.9535313e-06
1.9364708e-06
1.9172199e-06
1.8993272e-06
1.8798308e-06
1.861253e-06
1.8416775e-06
1.8225418e-06
1.8030326e-06
1.7834848e-06
1.7641973e-06
1.7443593e-06
1.7253801e-06
1.7053424e-06
1.6867527e-06
1.6666065e-06
1.6484718e-06
1.6282991e-06
1.6106719e-06
1.5905433e-06
1.5734593e-06
1.5534324e-06
1.5369144e-06
1.5170372e-06
1.5010016e-06
1.4815032e-06
1.4657326e-06
1.4469008e-06
1.4312857e-06
1.4131278e-06
1.3976958e-06
1.3802042e-06
1.3649688e-06
1.348124e-06
1.3330911e-06
1.3168666e-06
1.3020363e-06
1.2864017e-06
1.2717671e-06
1.2566853e-06
1.2422333e-06
1.2276614e-06
1.2133706e-06
1.199262e-06
1.1851028e-06
1.1714027e-06
1.1573383e-06
1.1439872e-06
1.1299691e-06
1.1169004e-06
1.1028692e-06
1.0900083e-06
1.0758884e-06
1.0631489e-06
1.0488506e-06
1.0361302e-06
1.0215349e-06
1.0087119e-06
9.9366491e-07
9.8058237e-07
9.6487946e-07
9.5133285e-07
9.3467267e-07
9.2037212e-07
9.0232028e-07
8.868358e-07
8.6669982e-07
8.4953496e-07
2.2508313e-07
4.4320773e-07
6.9648408e-07
9.4876272e-07
1.2729779e-06
1.5413901e-06
1.8455244e-06
2.0782071e-06
2.3215775e-06
2.4971112e-06
2.6659357e-06
2.7805541e-06
2.8824305e-06
2.9454574e-06
2.9933643e-06
3.0152971e-06
3.021871e-06
3.0128673e-06
2.988943e-06
2.9573557e-06
2.9115428e-06
2.8641543e-06
2.8033001e-06
2.7456488e-06
2.6748757e-06
2.6111276e-06
2.5342364e-06
2.4675967e-06
2.3873942e-06
2.3202112e-06
2.2387174e-06
2.1728356e-06
2.006171e-06
1.9936268e-06
1.9777115e-06
1.9638402e-06
1.9469223e-06
1.9318799e-06
1.9142337e-06
1.8981847e-06
1.8800392e-06
1.8631419e-06
1.8447012e-06
1.8271031e-06
1.8085369e-06
1.7903656e-06
1.7718205e-06
1.7532197e-06
1.7348523e-06
1.7159466e-06
1.6978475e-06
1.6787271e-06
1.6609794e-06
1.6417364e-06
1.6244078e-06
1.6051247e-06
1.5882701e-06
1.569019e-06
1.5526766e-06
1.5335164e-06
1.5177115e-06
1.4986916e-06
1.4833475e-06
1.4646904e-06
1.4496012e-06
1.4315852e-06
1.4166488e-06
1.399283e-06
1.3845277e-06
1.3678071e-06
1.3532474e-06
1.3371548e-06
1.3227983e-06
1.3073093e-06
1.2931572e-06
1.2782436e-06
1.2642903e-06
1.2499167e-06
1.2361499e-06
1.2222752e-06
1.2086749e-06
1.1952539e-06
1.1817909e-06
1.1687698e-06
1.1554082e-06
1.1427286e-06
1.1294203e-06
1.1170164e-06
1.1037018e-06
1.0914992e-06
1.078102e-06
1.0660138e-06
1.0524438e-06
1.0403673e-06
1.0265036e-06
1.0143154e-06
1.0000006e-06
9.8754146e-07
9.7256717e-07
9.5963013e-07
9.436905e-07
9.2998113e-07
9.1263639e-07
8.9772344e-07
8.7827886e-07
8.6176684e-07
1.963982e-07
3.9322776e-07
6.2893704e-07
8.6211883e-07
1.1653929e-06
1.4190193e-06
1.7089909e-06
1.9330319e-06
2.1693664e-06
2.3415367e-06
2.5088818e-06
2.6239443e-06
2.7277736e-06
2.7935077e-06
2.8453385e-06
2.8712611e-06
2.8828113e-06
2.8784181e-06
2.8599314e-06
2.8331803e-06
2.7929223e-06
2.7503528e-06
2.6949506e-06
2.6419399e-06
2.5764019e-06
2.5170294e-06
2.4451002e-06
2.3825264e-06
2.3069881e-06
2.2435439e-06
2.1664137e-06
2.1039378e-06
1.9444121e-06
1.9331095e-06
1.9186992e-06
1.906071e-06
1.8906014e-06
1.8767921e-06
1.8605388e-06
1.8457106e-06
1.828902e-06
1.8132108e-06
1.7960517e-06
1.7796446e-06
1.7623071e-06
1.7453112e-06
1.7279424e-06
1.7104984e-06
1.6932555e-06
1.6754893e-06
1.6584667e-06
1.6404683e-06
1.6237504e-06
1.6056118e-06
1.5892684e-06
1.5710721e-06
1.5551606e-06
1.5369795e-06
1.5215405e-06
1.5034344e-06
1.4884957e-06
1.4705151e-06
1.4560075e-06
1.438366e-06
1.4240978e-06
1.4070619e-06
1.3929386e-06
1.3765196e-06
1.3625703e-06
1.3467653e-06
1.3330054e-06
1.3177996e-06
1.3042374e-06
1.2896088e-06
1.2762466e-06
1.2621692e-06
1.2490021e-06
1.2354423e-06
1.2224589e-06
1.2093771e-06
1.1965578e-06
1.1839106e-06
1.1712266e-06
1.1589611e-06
1.1463766e-06
1.1344356e-06
1.1219024e-06
1.1102204e-06
1.0976788e-06
1.0861818e-06
1.0735543e-06
1.0621551e-06
1.0493503e-06
1.0379458e-06
1.0248402e-06
1.0133057e-06
9.9973994e-07
9.8791469e-07
9.736767e-07
9.6135271e-07
9.4613471e-07
9.3301575e-07
9.1637692e-07
9.02036e-07
8.8328896e-07
8.674781e-07
1.694711e-07
3.4163582e-07
5.5899407e-07
7.7164197e-07
1.0516319e-06
1.2883768e-06
1.5617062e-06
1.7752484e-06
2.0024313e-06
2.1697346e-06
2.3341739e-06
2.4487377e-06
2.5537081e-06
2.621671e-06
2.6770869e-06
2.7068727e-06
2.723406e-06
2.7237487e-06
2.710947e-06
2.689329e-06
2.6550338e-06
2.6176925e-06
2.5682546e-06
2.5203593e-06
2.4606297e-06
2.4061413e-06
2.3397793e-06
2.2817899e-06
2.2115325e-06
2.1523385e-06
2.080187e-06
2.0216107e-06
1.8704003e-06
1.860463e-06
1.8477155e-06
1.8364645e-06
1.8226035e-06
1.8101669e-06
1.7954674e-06
1.7820035e-06
1.7666917e-06
1.7523532e-06
1.7366335e-06
1.7215659e-06
1.7056116e-06
1.6899404e-06
1.6738989e-06
1.6577615e-06
1.6417889e-06
1.6253107e-06
1.6095052e-06
1.5927757e-06
1.5772226e-06
1.5603331e-06
1.5451041e-06
1.5281366e-06
1.5132907e-06
1.4963181e-06
1.4818986e-06
1.464981e-06
1.451018e-06
1.4342065e-06
1.4206389e-06
1.404137e-06
1.3907882e-06
1.3748483e-06
1.3616327e-06
1.3462683e-06
1.3332149e-06
1.3184254e-06
1.3055502e-06
1.291323e-06
1.2786349e-06
1.2649503e-06
1.2524521e-06
1.2392863e-06
1.2269735e-06
1.2142948e-06
1.2021563e-06
1.1899269e-06
1.1779435e-06
1.1661213e-06
1.1542643e-06
1.1427976e-06
1.1310309e-06
1.1198636e-06
1.1081389e-06
1.0972063e-06
1.0854631e-06
1.0746916e-06
1.0628516e-06
1.0521542e-06
1.0401247e-06
1.0293981e-06
1.0170542e-06
1.0061739e-06
9.9335476e-07
9.8215947e-07
9.6865153e-07
9.5693472e-07
9.4243165e-07
9.2989896e-07
9.1396489e-07
9.0019976e-07
8.8216448e-07
8.671132e-07
1.4430906e-07
2.9164555e-07
4.8946688e-07
6.8100077e-07
9.3627205e-07
1.1546581e-06
1.4094802e-06
1.6109683e-06
1.8271541e-06
1.988198e-06
2.1483298e-06
2.261404e-06
2.3665934e-06
2.4361742e-06
2.4946564e-06
2.5280029e-06
2.5493135e-06
2.5543242e-06
2.5472316e-06
2.5308478e-06
2.5027005e-06
2.4708061e-06
2.4276305e-06
2.3851445e-06
2.3315942e-06
2.2823298e-06
2.2219501e-06
2.168908e-06
2.1043713e-06
2.0497972e-06
1.9830748e-06
1.9287633e-06
1.7867716e-06
1.7782791e-06
1.7672999e-06
1.7575177e-06
1.745376e-06
1.7344097e-06
1.7213777e-06
1.7093807e-06
1.6956807e-06
1.6828014e-06
1.6686365e-06
1.6550177e-06
1.6405612e-06
1.6263262e-06
1.6117249e-06
1.5970066e-06
1.5824149e-06
1.5673373e-06
1.5528559e-06
1.5375077e-06
1.5232229e-06
1.5076938e-06
1.4936787e-06
1.4780498e-06
1.4643649e-06
1.4487083e-06
1.4353989e-06
1.4197748e-06
1.4068732e-06
1.3913328e-06
1.3787862e-06
1.3635213e-06
1.3511698e-06
1.3364174e-06
1.3241841e-06
1.3099599e-06
1.2978739e-06
1.2841794e-06
1.2722567e-06
1.2590816e-06
1.2473315e-06
1.2346583e-06
1.2230837e-06
1.2108908e-06
1.1994877e-06
1.1877453e-06
1.1765026e-06
1.1651748e-06
1.1540734e-06
1.1431195e-06
1.1321306e-06
1.1215004e-06
1.1105878e-06
1.1002263e-06
1.0893413e-06
1.079185e-06
1.0682668e-06
1.0582428e-06
1.0472123e-06
1.0372346e-06
1.0259985e-06
1.0159642e-06
1.0043969e-06
9.941829e-07
9.8212368e-07
9.7156965e-07
9.5880585e-07
9.4770926e-07
9.3393898e-07
9.2201046e-07
9.0680859e-07
8.9364724e-07
8.7636788e-07
8.621585e-07
1.2015038e-07
2.4563217e-07
4.2200894e-07
5.9237529e-07
8.2213462e-07
1.0211394e-06
1.2560826e-06
1.4441803e-06
1.647773e-06
1.8012842e-06
1.9557651e-06
2.0663537e-06
2.1707901e-06
2.2413036e-06
2.3022251e-06
2.3387188e-06
2.3644627e-06
2.3739462e-06
2.3724371e-06
2.3612562e-06
2.3392909e-06
2.312931e-06
2.2761689e-06
2.2392617e-06
2.1921214e-06
2.1483044e-06
2.0941906e-06
2.0463518e-06
1.9878527e-06
1.9381704e-06
1.8772133e-06