/*--------------------------------*- C++ -*----------------------------------*\
| =========                 |                                                 |
| \\      /  F ield         | OpenFOAM: The Open Source CFD Toolbox           |
|  \\    /   O peration     | Version:  2406                                  |
|   \\  /    A nd           | Website:  www.openfoam.com                      |
|    \\/     M anipulation  |                                                 |
\*---------------------------------------------------------------------------*/
FoamFile
{
    version     2.0;
    format      ascii;
    arch        "LSB;label=32;scalar=64";
    class       volScalarField;
    location    "0";
    object      initialResidual:nuTilda;
}
// * * * * * * * * * * * * * * * * * * * * * * * * * * * * * * * * * * * * * //

dimensions      [0 0 0 0 0 0 0];

internalField   nonuniform List<scalar> 
24384
(
-6.9126474e-18
-8.3942924e-18
1.0295262e-17
1.7715606e-17
1.7792257e-16
1.3889637e-16
2.660034e-16
1.1133829e-15
1.6733541e-15
4.8049622e-15
9.4376504e-15
2.8136827e-14
8.0706077e-14
1.7180536e-13
3.1773621e-18
-3.2938091e-18
1.7078808e-17
1.7250553e-17
3.3470965e-16
2.6291256e-16
6.6452445e-16
1.7485176e-15
2.6631586e-15
5.9235456e-15
3.8879634e-15
4.7043983e-14
3.4780642e-14
1.0160494e-13
2.0112854e-17
1.5972922e-17
3.8357439e-17
3.0629074e-17
-9.9310185e-17
1.137057e-16
5.524599e-16
-1.6346995e-15
-1.7217144e-15
-1.1830829e-14
-4.8552062e-14
-1.6450261e-14
-4.0160586e-13
-7.4167809e-13
2.8783538e-17
3.7256461e-17
8.4319569e-17
1.0806738e-16
-1.0126664e-15
-1.9121715e-16
-5.4573446e-17
-8.0944103e-15
-9.9732089e-15
-4.5209849e-14
-1.3524125e-13
-1.4860704e-13
-1.12431e-12
-2.1419271e-12
2.8354138e-17
4.8056792e-17
1.159321e-16
2.064653e-16
-2.0489977e-15
-6.1919512e-16
-1.0929112e-15
-1.6049436e-14
-2.0223376e-14
-8.906765e-14
-2.4029367e-13
-3.3200168e-13
-2.0073268e-12
-3.8568371e-12
2.2287151e-17
4.773793e-17
1.2489713e-16
2.7007736e-16
-2.9463591e-15
-1.1848007e-15
-2.6259102e-15
-2.4206315e-14
-3.1300897e-14
-1.3999138e-13
-3.5423821e-13
-5.6196617e-13
-2.98681e-12
-5.7829412e-12
1.4559703e-17
3.7972201e-17
1.0905858e-16
2.8210035e-16
-3.5542421e-15
-1.7847509e-15
-4.5160004e-15
-3.0648326e-14
-4.0993329e-14
-1.8720228e-13
-4.5359347e-13
-8.0276348e-13
-3.8814869e-12
-7.5954847e-12
7.6247502e-18
2.1214655e-17
7.2908508e-17
2.381666e-16
-3.9461098e-15
-2.4549067e-15
-6.7788066e-15
-3.5613521e-14
-4.9614138e-14
-2.2844643e-13
-5.3400332e-13
-1.0560577e-12
-4.6721908e-12
-9.2961616e-12
2.8005562e-18
2.0816411e-18
1.9837882e-17
1.2952448e-16
-4.0800876e-15
-3.1852422e-15
-9.0307068e-15
-3.9123677e-14
-5.6936708e-14
-2.5730085e-13
-5.8139895e-13
-1.2861651e-12
-5.2249275e-12
-1.06372e-11
-4.6317925e-19
-1.6032536e-17
-4.0403413e-17
-4.3688854e-17
-3.9432186e-15
-3.9946228e-15
-1.1063817e-14
-4.168403e-14
-6.3611744e-14
-2.7460251e-13
-5.9732911e-13
-1.4766873e-12
-5.5096673e-12
-1.1544579e-11
-3.8015601e-19
-1.6002876e-17
-1.0096903e-16
-2.2713116e-16
-3.5555855e-15
-4.9207782e-15
-1.2836422e-14
-4.3631027e-14
-7.0249844e-14
-2.8320745e-13
-5.8891042e-13
-1.6251746e-12
-5.5375015e-12
-1.2021965e-11
4.6178528e-20
-3.255801e-18
-1.1501494e-16
-3.6970087e-16
-3.08565e-15
-5.7423028e-15
-1.412961e-14
-4.4938805e-14
-7.6501896e-14
-2.8459775e-13
-5.6582449e-13
-1.7199877e-12
-5.3460138e-12
-1.2075899e-11
-3.503114e-19
-2.532246e-19
-6.3886312e-17
-4.4260886e-16
-2.5845377e-15
-6.2224862e-15
-1.4995825e-14
-4.5591381e-14
-8.2122798e-14
-2.8068498e-13
-5.3725499e-13
-1.7653774e-12
-5.0169659e-12
-1.1832049e-11
-1.26896e-19
-1.3559595e-18
-1.1470249e-17
-3.092201e-16
-2.1396895e-15
-6.2441452e-15
-1.5522562e-14
-4.5342549e-14
-8.6834722e-14
-2.7290669e-13
-5.0819391e-13
-1.7679971e-12
-4.6169545e-12
-1.1424002e-11
-1.5676799e-19
-6.6413123e-19
-6.823172e-18
-5.8843574e-17
-1.1832538e-15
-6.0639683e-15
-1.5076668e-14
-4.3837285e-14
-9.0450152e-14
-2.6086586e-13
-4.7861335e-13
-1.7250451e-12
-4.1479336e-12
-1.0919794e-11
-1.1651585e-19
-6.9910718e-19
-5.1217376e-18
-1.0764925e-17
-1.6595274e-16
-4.8317328e-15
-1.4160782e-14
-4.0605055e-14
-9.1083798e-14
-2.4673847e-13
-4.540597e-13
-1.6437729e-12
-3.7206043e-12
-1.0450262e-11
-9.8198689e-20
-5.1708695e-19
-4.1256904e-18
-1.4047491e-17
-2.9352599e-17
-1.6860537e-15
-1.1939475e-14
-3.6695624e-14
-8.6477903e-14
-2.3242835e-13
-4.3177719e-13
-1.5365846e-12
-3.356497e-12
-9.8306457e-12
-7.1110536e-20
-5.2855621e-19
-3.318464e-18
-1.0218906e-17
-2.3367548e-17
-5.3035091e-17
-3.0371358e-15
-3.2636743e-14
-7.737932e-14
-2.0939408e-13
-4.0616838e-13
-1.3812896e-12
-2.9854576e-12
-8.9696434e-12
-7.897063e-20
-4.383977e-19
-2.8432232e-18
-8.6422093e-18
-1.5372581e-17
-4.1592235e-17
-1.7580082e-16
-1.6137582e-14
-7.0415824e-14
-1.7966388e-13
-3.7849653e-13
-1.2263493e-12
-2.7073433e-12
-8.1132269e-12
-6.8509981e-20
-6.5130159e-19
-2.2223535e-18
-6.3857266e-18
-1.3583227e-17
-2.9597436e-17
-4.9920897e-17
-9.1371307e-16
-3.1941748e-14
-1.515473e-13
-3.3100337e-13
-1.0272934e-12
-2.4280835e-12
-7.0841983e-12
1.5196302e-19
2.6376987e-19
-4.9114989e-19
-1.4383244e-18
-3.0238455e-18
-5.609445e-18
-9.996301e-18
-1.6238905e-17
-2.1260791e-15
-7.7575268e-14
-2.9017002e-13
-8.281212e-13
-2.1652477e-12
-6.1489067e-12
7.0580868e-20
1.1830188e-19
1.7890827e-19
3.2508002e-19
3.6900613e-19
3.6466124e-19
5.7323391e-19
8.4543993e-19
2.0273814e-18
-8.351722e-15
-1.806229e-13
-6.3915639e-13
-1.8342452e-12
-5.1386127e-12
6.4551467e-20
1.3379122e-19
1.8799403e-19
3.3397494e-19
4.5261946e-19
5.5466497e-19
7.3260643e-19
8.5287292e-19
9.7368535e-19
-1.0126653e-16
-2.804246e-14
-3.6575248e-13
-1.5400556e-12
-4.1107244e-12
6.7978189e-20
1.6712016e-19
1.5986493e-19
5.0318628e-19
4.9657555e-19
6.3372401e-19
7.8233127e-19
7.6347657e-19
1.2951999e-18
6.367598e-19
5.0555325e-18
-4.3833693e-14
-1.0571561e-12
-3.2750478e-12
7.4821582e-20
1.7233407e-19
1.910796e-19
3.5463123e-19
5.0021409e-19
5.2797427e-19
6.7588504e-19
9.1164356e-19
9.3916969e-19
1.3019539e-18
4.4219287e-18
-4.7751845e-16
-1.6598624e-13
-1.970887e-12
9.0396877e-20
1.5293472e-19
2.8570061e-19
3.5399854e-19
3.9260724e-19
6.5931495e-19
8.7124633e-19
7.6623046e-19
1.1476052e-18
1.0559268e-18
4.6800677e-18
-8.1037796e-18
2.2924599e-15
-6.6425908e-14
8.7252229e-20
1.9802526e-19
2.5750531e-19
3.8212266e-19
5.9025536e-19
6.1961667e-19
7.510762e-19
1.1464393e-18
8.9476454e-19
1.7914353e-18
8.6733618e-18
-2.4389164e-17
2.1026191e-17
2.6796814e-15
1.0404901e-19
1.9770406e-19
3.262316e-19
4.2829316e-19
4.9161164e-19
7.7275411e-19
1.0049047e-18
9.6025925e-19
1.5135889e-18
1.2949203e-18
-1.2852173e-18
1.5187773e-17
8.8762788e-19
-3.5954732e-17
1.1673572e-19
2.3644363e-19
3.4462336e-19
4.8170978e-19
6.3285765e-19
8.2773005e-19
1.0028467e-18
1.2820471e-18
1.4236057e-18
1.9275821e-18
2.7151444e-18
2.3487429e-18
5.3666824e-18
-1.3916871e-17
1.3214702e-19
2.6480764e-19
3.9352909e-19
5.4836391e-19
6.7277043e-19
9.5378052e-19
1.2032446e-18
1.3394994e-18
1.7465474e-18
1.958988e-18
1.0337033e-18
9.2163094e-18
4.4770026e-18
-2.9390494e-17
1.5042794e-19
3.1514189e-19
4.4355211e-19
6.3564712e-19
8.2870024e-19
1.0822481e-18
1.3242676e-18
1.670782e-18
1.9078779e-18
2.4966759e-18
3.2746424e-18
2.9278829e-18
4.3886246e-18
1.8268827e-19
1.7781197e-19
3.7119773e-19
5.2527958e-19
7.5074839e-19
9.6383323e-19
1.2836047e-18
1.5969834e-18
1.9302821e-18
2.311035e-18
2.8796021e-18
3.0254079e-18
6.0686035e-18
4.1824258e-18
-8.6044802e-19
2.0991446e-19
4.4174028e-19
6.1936656e-19
8.8299631e-19
1.1893881e-18
1.4966881e-18
1.8342625e-18
2.3874678e-18
2.7116085e-18
3.496618e-18
4.1485331e-18
5.2707467e-18
5.6009871e-18
5.251407e-18
2.5323956e-19
5.4300743e-19
7.5253931e-19
1.0844935e-18
1.4613611e-18
1.8358165e-18
2.2829394e-18
2.918994e-18
3.3723514e-18
4.29301e-18
4.8596663e-18
6.6786914e-18
4.6122665e-18
1.9895625e-17
3.0009024e-19
6.5551282e-19
8.8770262e-19
1.2894382e-18
1.8152016e-18
2.15783e-18
2.6439752e-18
3.6390991e-18
3.9827009e-18
5.2266898e-18
7.5876524e-18
1.372505e-18
5.5102605e-18
4.8534032e-17
3.8241035e-19
8.0507984e-19
1.1455241e-18
1.6247938e-18
2.2156977e-18
2.7781877e-18
3.426987e-18
4.5079302e-18
5.1782803e-18
6.5458125e-18
6.993795e-18
1.1951903e-17
1.0876241e-17
8.3043509e-18
4.5870986e-19
9.7528948e-19
1.371718e-18
1.9620118e-18
2.7015578e-18
3.3491156e-18
4.0994123e-18
5.5499895e-18
6.2816543e-18
7.9751135e-18
9.0291197e-18
1.2711671e-17
1.5439167e-17
5.9759647e-18
5.7599677e-19
1.2135691e-18
1.7402228e-18
2.4629252e-18
3.3458273e-18
4.2475208e-18
5.1924407e-18
6.9749857e-18
8.0341265e-18
9.9866126e-18
1.0791227e-17
1.8092402e-17
1.8412614e-17
6.0800728e-18
6.9589494e-19
1.4642394e-18
2.1200063e-18
2.9953983e-18
4.001649e-18
5.2013569e-18
6.3844327e-18
8.4328594e-18
9.8364774e-18
1.2236411e-17
1.4031851e-17
1.8644083e-17
2.1133362e-17
2.6274205e-17
8.5464009e-19
1.795317e-18
2.620647e-18
3.6875821e-18
4.891018e-18
6.4293522e-18
7.9294777e-18
1.0376434e-17
1.2301894e-17
1.5070532e-17
1.7309004e-17
2.3705376e-17
2.6813353e-17
2.7859384e-17
1.0250194e-18
2.142137e-18
3.1632338e-18
4.4342604e-18
5.7841463e-18
7.7721302e-18
9.6747908e-18
1.2335284e-17
1.4896904e-17
1.8302273e-17
2.1011202e-17
2.8166864e-17
3.2286459e-17
3.8538662e-17
1.2087438e-18
2.5452518e-18
3.7593151e-18
5.2625997e-18
6.9026883e-18
9.2109241e-18
1.1468793e-17
1.4761973e-17
1.7919669e-17
2.1700053e-17
2.5807593e-17
3.1497432e-17
3.9318731e-17
4.0263509e-17
1.3918806e-18
2.9229648e-18
4.3661954e-18
6.0919873e-18
7.8998456e-18
1.0692749e-17
1.3408818e-17
1.6949748e-17
2.0847382e-17
2.5397704e-17
2.9800323e-17
3.7194565e-17
4.3931091e-17
4.6575048e-17
1.5347621e-18
3.2332647e-18
4.8585166e-18
6.7668399e-18
8.7698397e-18
1.1878639e-17
1.4898706e-17
1.8916201e-17
2.3333179e-17
2.8374173e-17
3.3424964e-17
4.2359846e-17
5.2819066e-17
6.2926235e-17
1.6352854e-18
3.4110407e-18
5.0901691e-18
7.0978057e-18
9.161486e-18
1.2434875e-17
1.5781454e-17
1.9695601e-17
2.4495014e-17
3.0488761e-17
3.4296357e-17
4.6124293e-17
5.8158862e-17
6.8404837e-17
1.5574109e-18
3.261657e-18
4.835858e-18
6.7567198e-18
8.7991194e-18
1.1782092e-17
1.4902664e-17
1.8662537e-17
2.3390834e-17
2.9334972e-17
3.3643277e-17
4.4054851e-17
5.4880691e-17
6.4993312e-17
1.1864389e-18
2.4858425e-18
3.6865698e-18
5.1507816e-18
6.7148513e-18
9.0037027e-18
1.1106054e-17
1.4800738e-17
1.8165477e-17
2.3321268e-17
2.6496726e-17
3.395422e-17
4.2052672e-17
4.9899866e-17
5.4510826e-19
1.1480306e-18
1.7388838e-18
2.4409374e-18
3.1751672e-18
4.2459951e-18
5.1930055e-18
6.8789368e-18
8.1381625e-18
1.391356e-17
3.0769579e-17
2.5850708e-17
2.8877612e-17
3.2541279e-17
5.8974666e-13
1.0886172e-12
1.6490526e-12
2.2110697e-12
2.9120872e-12
3.4789779e-12
4.1083987e-12
4.5800947e-12
5.0639842e-12
5.4053009e-12
5.7266008e-12
5.939101e-12
6.1219241e-12
6.2292334e-12
6.3034949e-12
6.3288919e-12
6.3217641e-12
6.2866192e-12
6.2201537e-12
6.141557e-12
6.0331349e-12
5.9246228e-12
5.7878844e-12
5.660337e-12
5.5053326e-12
5.3668903e-12
5.2009625e-12
5.0579121e-12
4.8864383e-12
4.7433362e-12
4.5701812e-12
4.4305706e-12
4.081218e-12
4.0530612e-12
4.017515e-12
3.9867318e-12
3.949361e-12
3.9162711e-12
3.8775905e-12
3.8425354e-12
3.8029907e-12
3.7662444e-12
3.7262006e-12
3.6880608e-12
3.6478698e-12
3.6085519e-12
3.5684526e-12
3.5282581e-12
3.4885662e-12
3.447703e-12
3.4085765e-12
3.3672232e-12
3.3288149e-12
3.2871388e-12
3.2495726e-12
3.2077317e-12
3.1711097e-12
3.1292163e-12
3.0935987e-12
3.0517656e-12
3.0171885e-12
2.9754839e-12
2.9417601e-12
2.900662e-12
2.867323e-12
2.8274068e-12
2.7942085e-12
2.7554869e-12
2.7224681e-12
2.6849149e-12
2.6520804e-12
2.6156414e-12
2.5829827e-12
2.54759e-12
2.515083e-12
2.4806667e-12
2.4482847e-12
2.4147336e-12
2.3823987e-12
2.3496383e-12
2.3173207e-12
2.2851912e-12
2.2527546e-12
2.221171e-12
2.1885167e-12
2.1573145e-12
2.1243125e-12
2.0933291e-12
2.0598078e-12
2.0288678e-12
1.9946122e-12
1.9635178e-12
1.9283657e-12
1.8968503e-12
1.8604198e-12
1.8282408e-12
1.7902802e-12
1.7570824e-12
1.717089e-12
1.6824804e-12
1.6398785e-12
1.6033395e-12
1.5573717e-12
1.5181599e-12
1.4676831e-12
1.42476e-12
1.9244669e-13
8.3649861e-13
1.6740724e-12
2.5193834e-12
3.7123617e-12
4.7782606e-12
6.0652859e-12
7.1097606e-12
8.2699696e-12
9.1511569e-12
1.0046996e-11
1.0694004e-11
1.131142e-11
1.1734161e-11
1.2106586e-11
1.2336956e-11
1.2510719e-11
1.2586838e-11
1.2603584e-11
1.2561647e-11
1.2460404e-11
1.2330857e-11
1.2143239e-11
1.1951433e-11
1.1702628e-11
1.1469145e-11
1.1178584e-11
1.0920042e-11
1.0602231e-11
1.0331352e-11
9.9972781e-12
9.7238503e-12
8.9916656e-12
8.9551841e-12
8.9063982e-12
8.8621044e-12
8.8062786e-12
8.7551545e-12
8.6936796e-12
8.6366087e-12
8.570846e-12
8.5084583e-12
8.4393614e-12
8.3726047e-12
8.3013606e-12
8.2307737e-12
8.1579998e-12
8.0843121e-12
8.0110119e-12
7.9349505e-12
7.861649e-12
7.7837008e-12
7.7109194e-12
7.6315609e-12
7.5597223e-12
7.4794648e-12
7.4089982e-12
7.3281748e-12
7.2593357e-12
7.1783689e-12
7.1113587e-12
7.0304879e-12
6.9650822e-12
6.8854393e-12
6.8208562e-12
6.743605e-12
6.679454e-12
6.6047728e-12
6.5412556e-12
6.4692294e-12
6.4064719e-12
6.3370961e-12
6.2751938e-12
6.2084102e-12
6.1474399e-12
6.0832786e-12
6.0232991e-12
5.9615098e-12
5.9024027e-12
5.843048e-12
5.7850801e-12
5.727783e-12
5.6705154e-12
5.6153125e-12
5.5588333e-12
5.5054262e-12
5.4495869e-12
5.3977269e-12
5.3422757e-12
5.2917241e-12
5.2361791e-12
5.1866518e-12
5.1313698e-12
5.0822052e-12
5.0259141e-12
4.9768353e-12
4.9196594e-12
4.8698526e-12
4.8107428e-12
4.7595462e-12
4.6968822e-12
4.6432787e-12
4.5758548e-12
4.5180428e-12
4.4429913e-12
4.3790955e-12
-3.1474037e-12
-4.2670217e-12
-4.9843784e-12
-5.7442609e-12
-6.1996921e-12
-6.2059514e-12
-5.8411716e-12
-5.2771277e-12
-4.3814848e-12
-3.51786e-12
-2.4637314e-12
-1.5669046e-12
-5.733687e-13
2.299927e-13
1.0770661e-12
1.7423081e-12
2.4228483e-12
2.9415536e-12
3.4578019e-12
3.8429352e-12
4.2162891e-12
4.4860319e-12
4.7380947e-12
4.9111412e-12
5.0644008e-12
5.1597826e-12
5.2347444e-12
5.2699148e-12
5.2830473e-12
5.2729207e-12
5.2380111e-12
5.1944368e-12
4.9099408e-12
4.9694562e-12
5.03445e-12
5.0830978e-12
5.134505e-12
5.1737386e-12
5.2132789e-12
5.2438927e-12
5.273229e-12
5.295738e-12
5.3160819e-12
5.3317658e-12
5.3449121e-12
5.3543114e-12
5.3609203e-12
5.3646671e-12
5.3661919e-12
5.3653711e-12
5.3626415e-12
5.3577795e-12
5.3516632e-12
5.3433514e-12
5.3345405e-12
5.3234551e-12
5.3127291e-12
5.2993602e-12
5.2872381e-12
5.2721852e-12
5.2591386e-12
5.2428138e-12
5.2292314e-12
5.2123822e-12
5.1984801e-12
5.1816279e-12
5.1675384e-12
5.1511115e-12
5.1372048e-12
5.1215941e-12
5.1081906e-12
5.0936819e-12
5.0810774e-12
5.0678436e-12
5.0563202e-12
5.0447545e-12
5.0345234e-12
5.0245409e-12
5.0156919e-12
5.0076341e-12
5.0007423e-12
4.9945542e-12
4.9892252e-12
4.9850663e-12
4.9818305e-12
4.9797147e-12
4.9786043e-12
4.9785359e-12
4.979578e-12
4.9816108e-12
4.9844555e-12
4.9885626e-12
4.9943197e-12
5.0000686e-12
5.007538e-12
5.0150553e-12
5.0248994e-12
5.0336616e-12
5.0457869e-12
5.0559489e-12
5.0688418e-12
5.0801472e-12
5.094486e-12
5.106456e-12
5.1213415e-12
5.1342371e-12
-8.6485232e-12
-1.3328619e-11
-1.7200729e-11
-2.1295072e-11
-2.5424318e-11
-2.8036725e-11
-3.0186776e-11
-3.1201872e-11
-3.160039e-11
-3.1402245e-11
-3.0716596e-11
-2.9848173e-11
-2.8640962e-11
-2.7476339e-11
-2.6068801e-11
-2.4811087e-11
-2.3373528e-11
-2.2140603e-11
-2.0770345e-11
-1.9616361e-11
-1.8351117e-11
-1.7300888e-11
-1.6158737e-11
-1.522277e-11
-1.4203657e-11
-1.3380142e-11
-1.2475209e-11
-1.1756524e-11
-1.0955809e-11
-1.033194e-11
-9.6240848e-12
-9.0860471e-12
-8.1091045e-12
-7.8565212e-12
-7.5589541e-12
-7.3174374e-12
-7.0404016e-12
-6.8083285e-12
-6.5503157e-12
-6.327655e-12
-6.0875079e-12
-5.8743855e-12
-5.6510259e-12
-5.4461911e-12
-5.2375085e-12
-5.0407534e-12
-4.8464107e-12
-4.65776e-12
-4.4762156e-12
-4.2944704e-12
-4.1246985e-12
-3.9496103e-12
-3.7904931e-12
-3.6215657e-12
-3.47222e-12
-3.3088464e-12
-3.1681871e-12
-3.0098469e-12
-2.877068e-12
-2.7231625e-12
-2.5974786e-12
-2.4475001e-12
-2.3273325e-12
-2.1819612e-12
-2.0648433e-12
-1.9254434e-12
-1.810041e-12
-1.6758752e-12
-1.5617075e-12
-1.4319559e-12
-1.3185004e-12
-1.1924048e-12
-1.0791283e-12
-9.5608565e-13
-8.4246603e-13
-7.2154246e-13
-6.0713722e-13
-4.8800559e-13
-3.7239635e-13
-2.5427949e-13
-1.3658005e-13
-1.8869351e-14
1.0086933e-13
2.1857106e-13
3.4138477e-13
4.5973123e-13
5.8602729e-13
7.0553438e-13
8.3585044e-13
9.5712759e-13
1.091597e-12
1.2151158e-12
1.3556034e-12
1.4816855e-12
1.6276861e-12
1.7570837e-12
1.9099384e-12
2.0428826e-12
2.2039201e-12
2.3418842e-12
2.5105552e-12
2.6543205e-12
2.8336729e-12
2.9849064e-12
3.1768998e-12
3.3380558e-12
-1.5370435e-11
-2.5125504e-11
-3.3439659e-11
-4.2315596e-11
-5.1901538e-11
-5.8531876e-11
-6.4725333e-11
-6.8420754e-11
-7.1202923e-11
-7.2400861e-11
-7.2726144e-11
-7.2271735e-11
-7.1140377e-11
-6.9743051e-11
-6.7811344e-11
-6.5905306e-11
-6.3570587e-11
-6.1442085e-11
-5.895978e-11
-5.6773538e-11
-5.4282622e-11
-5.2137832e-11
-4.9726539e-11
-4.7686559e-11
-4.5398633e-11
-4.3495923e-11
-4.1348605e-11
-3.9597251e-11
-3.7596988e-11
-3.6000176e-11
-3.4144412e-11
-3.2701805e-11
-2.9700215e-11
-2.9171522e-11
-2.853887e-11
-2.8017645e-11
-2.7411472e-11
-2.6896419e-11
-2.6316061e-11
-2.5808612e-11
-2.5254404e-11
-2.4755929e-11
-2.4227412e-11
-2.3737102e-11
-2.3232237e-11
-2.2750571e-11
-2.226977e-11
-2.1798028e-11
-2.134016e-11
-2.087736e-11
-2.0441363e-11
-1.9987897e-11
-1.9572611e-11
-1.9128325e-11
-1.8732818e-11
-1.829746e-11
-1.792046e-11
-1.749369e-11
-1.713415e-11
-1.6715592e-11
-1.6372447e-11
-1.5961662e-11
-1.5631677e-11
-1.5231791e-11
-1.4909133e-11
-1.4524603e-11
-1.4206105e-11
-1.3835848e-11
-1.3521029e-11
-1.3163748e-11
-1.2851949e-11
-1.2506309e-11
-1.219679e-11
-1.1861614e-11
-1.1553637e-11
-1.1227347e-11
-1.0920199e-11
-1.0601876e-11
-1.0294792e-11
-9.9830848e-12
-9.6748781e-12
-9.3683279e-12
-9.0585148e-12
-8.756307e-12
-8.4433896e-12
-8.1440273e-12
-7.8270668e-12
-7.5293179e-12
-7.2071352e-12
-6.9096308e-12
-6.5813447e-12
-6.2828851e-12
-5.9459098e-12
-5.6450386e-12
-5.2987296e-12
-4.9938421e-12
-4.6359756e-12
-4.3256836e-12
-3.9532618e-12
-3.6344145e-12
-3.2461873e-12
-2.9166155e-12
-2.5068785e-12
-2.1621548e-12
-1.7254449e-12
-1.3611151e-12
-2.2866182e-11
-3.9241289e-11
-5.3335542e-11
-6.8503014e-11
-8.5498108e-11
-9.7752566e-11
-1.0978596e-10
-1.1749811e-10
-1.2403513e-10
-1.2758592e-10
-1.2980136e-10
-1.3032206e-10
-1.2972812e-10
-1.2834873e-10
-1.260423e-10
-1.235078e-10
-1.2020016e-10
-1.1703303e-10
-1.1320746e-10
-1.0973544e-10
-1.0568403e-10
-1.0211955e-10
-9.803847e-11
-9.4527672e-11
-9.0531981e-11
-8.7163505e-11
-8.3315705e-11
-8.0140898e-11
-7.6477186e-11
-7.3523643e-11
-7.0059082e-11
-6.7342915e-11
-6.1430222e-11
-6.0535939e-11
-5.9456838e-11
-5.8560926e-11
-5.7511742e-11
-5.6614002e-11
-5.5595855e-11
-5.4700092e-11
-5.3716151e-11
-5.2825785e-11
-5.1876866e-11
-5.0992044e-11
-5.007676e-11
-4.9199141e-11
-4.8319218e-11
-4.7452062e-11
-4.6607511e-11
-4.5750552e-11
-4.4940489e-11
-4.4095205e-11
-4.3318788e-11
-4.2485708e-11
-4.1742173e-11
-4.0921796e-11
-4.0209892e-11
-3.9402373e-11
-3.8720931e-11
-3.7926425e-11
-3.7274202e-11
-3.6492596e-11
-3.586422e-11
-3.5102318e-11
-3.4487325e-11
-3.3754138e-11
-3.3146802e-11
-3.2440852e-11
-3.1840844e-11
-3.116035e-11
-3.0567006e-11
-2.9909993e-11
-2.9322447e-11
-2.8687045e-11
-2.8104416e-11
-2.7488322e-11
-2.6909631e-11
-2.6311169e-11
-2.5735347e-11
-2.5152458e-11
-2.4578044e-11
-2.400829e-11
-2.3434155e-11
-2.2876081e-11
-2.2300363e-11
-2.1751502e-11
-2.117263e-11
-2.0630844e-11
-2.0046955e-11
-1.9509958e-11
-1.8919259e-11
-1.8384911e-11
-1.7784208e-11
-1.7249707e-11
-1.6636916e-11
-1.6099633e-11
-1.5471638e-11
-1.4928818e-11
-1.4280983e-11
-1.3727782e-11
-1.3056785e-11
-1.2489587e-11
-1.1787545e-11
-1.1199476e-11
-1.045816e-11
-9.8446751e-12
-2.9803199e-11
-5.3437725e-11
-7.3973882e-11
-9.6163477e-11
-1.2169971e-10
-1.4062872e-10
-1.5978933e-10
-1.7255949e-10
-1.8401194e-10
-1.9079427e-10
-1.9577758e-10
-1.9789308e-10
-1.9841367e-10
-1.9743518e-10
-1.9507982e-10
-1.9210661e-10
-1.879546e-10
-1.8379001e-10
-1.7860276e-10
-1.7377729e-10
-1.6804136e-10
-1.6291233e-10
-1.5696301e-10
-1.5178498e-10
-1.4583329e-10
-1.4077075e-10
-1.3494275e-10
-1.3009905e-10
-1.2447391e-10
-1.1991224e-10
-1.1453193e-10
-1.1029281e-10
-1.0083401e-10
-9.9527228e-11
-9.7941159e-11
-9.6617344e-11
-9.5059745e-11
-9.372071e-11
-9.2195595e-11
-9.0848371e-11
-8.9363099e-11
-8.801391e-11
-8.6571273e-11
-8.5221694e-11
-8.3821653e-11
-8.2475057e-11
-8.1121244e-11
-7.9783452e-11
-7.8477815e-11
-7.7149888e-11
-7.5892029e-11
-7.4576878e-11
-7.336673e-11
-7.2065957e-11
-7.0903209e-11
-6.9618451e-11
-6.8502184e-11
-6.7234469e-11
-6.6163612e-11
-6.4913947e-11
-6.3887277e-11
-6.2656181e-11
-6.166596e-11
-6.0464905e-11
-5.9495218e-11
-5.8338906e-11
-5.7380979e-11
-5.6267537e-11
-5.532135e-11
-5.4248592e-11
-5.3313655e-11
-5.2279019e-11
-5.135449e-11
-5.0355409e-11
-4.9440379e-11
-4.8473853e-11
-4.7567158e-11
-4.6630697e-11
-4.5731072e-11
-4.4821865e-11
-4.3927656e-11
-4.3042297e-11
-4.2151756e-11
-4.1287992e-11
-4.0399048e-11
-3.9553481e-11
-3.8663952e-11
-3.7833468e-11
-3.6940903e-11
-3.6122269e-11
-3.5223988e-11
-3.4414036e-11
-3.3506445e-11
-3.2701093e-11
-3.1780662e-11
-3.0976229e-11
-3.0039182e-11
-2.9231614e-11
-2.8272005e-11
-2.7455156e-11
-2.6468002e-11
-2.5637036e-11
-2.4613337e-11
-2.3760105e-11
-2.2690685e-11
-2.1813707e-11
-3.6090902e-11
-6.7789462e-11
-9.5788391e-11
-1.2603068e-10
-1.6172779e-10
-1.8884599e-10
-2.1700054e-10
-2.3635137e-10
-2.5442597e-10
-2.65742e-10
-2.7480534e-10
-2.7945118e-10
-2.8196581e-10
-2.819791e-10
-2.8008488e-10
-2.7697783e-10
-2.7219761e-10
-2.6711763e-10
-2.6056346e-10
-2.5430152e-10
-2.4671511e-10
-2.3982016e-10
-2.3172212e-10
-2.2459582e-10
-2.1633014e-10
-2.0924219e-10
-2.0102623e-10
-1.9415441e-10
-1.8613044e-10
-1.7959066e-10
-1.7184194e-10
-1.6571137e-10
-1.5176157e-10
-1.499754e-10
-1.4779563e-10
-1.4596718e-10
-1.4380639e-10
-1.4194078e-10
-1.398077e-10
-1.3791656e-10
-1.3582486e-10
-1.3391835e-10
-1.3187384e-10
-1.2995564e-10
-1.2796069e-10
-1.2603674e-10
-1.2409788e-10
-1.2217741e-10
-1.2029969e-10
-1.1838607e-10
-1.1657011e-10
-1.1466813e-10
-1.129153e-10
-1.1102825e-10
-1.0933915e-10
-1.0747039e-10
-1.0584491e-10
-1.0399691e-10
-1.0243444e-10
-1.0060954e-10
-9.9109184e-11
-9.7308985e-11
-9.586029e-11
-9.4102426e-11
-9.2682767e-11
-9.0989383e-11
-8.9586211e-11
-8.7955025e-11
-8.6568823e-11
-8.4997339e-11
-8.3628025e-11
-8.2113165e-11
-8.0760115e-11
-7.9298619e-11
-7.7961052e-11
-7.654922e-11
-7.5225901e-11
-7.3860349e-11
-7.2549934e-11
-7.1227022e-11
-6.9927735e-11
-6.8643047e-11
-6.7352562e-11
-6.6102831e-11
-6.4818994e-11
-6.3599899e-11
-6.2319934e-11
-6.1127238e-11
-5.9848193e-11
-5.867763e-11
-5.7395903e-11
-5.6243108e-11
-5.4954861e-11
-5.3814472e-11
-5.2514653e-11
-5.13818e-11
-5.0066148e-11
-4.8935412e-11
-4.7596784e-11
-4.6461005e-11
-4.5093146e-11
-4.3946186e-11
-4.2539632e-11
-4.1373098e-11
-3.9919172e-11
-3.8738522e-11
-4.0685158e-11
-8.0190568e-11
-1.1597764e-10
-1.5443094e-10
-2.0095631e-10
-2.3711001e-10
-2.7549193e-10
-3.0257032e-10
-3.2868729e-10
-3.4571881e-10
-3.6014981e-10
-3.6831966e-10
-3.7383814e-10
-3.7558954e-10
-3.7487671e-10
-3.7214486e-10
-3.6719865e-10
-3.6150713e-10
-3.5383625e-10
-3.4627701e-10
-3.3692474e-10
-3.2827597e-10
-3.179864e-10
-3.088299e-10
-2.9811363e-10
-2.8885135e-10
-2.7804388e-10
-2.6894997e-10
-2.5827708e-10
-2.4953766e-10
-2.3913939e-10
-2.3088129e-10
-2.1176305e-10
-2.0948199e-10
-2.0668295e-10
-2.0432306e-10
-2.0152184e-10
-1.990928e-10
-1.9630501e-10
-1.9382454e-10
-1.9107238e-10
-1.8855561e-10
-1.8584896e-10
-1.8330229e-10
-1.8064726e-10
-1.7808017e-10
-1.7548733e-10
-1.7291317e-10
-1.7039184e-10
-1.678174e-10
-1.6537005e-10
-1.6280236e-10
-1.6043249e-10
-1.578772e-10
-1.5558691e-10
-1.530497e-10
-1.5084031e-10
-1.4832572e-10
-1.4619762e-10
-1.4370984e-10
-1.4166288e-10
-1.392051e-10
-1.3722602e-10
-1.3482328e-10
-1.3288195e-10
-1.305653e-10
-1.2864491e-10
-1.2641173e-10
-1.2451344e-10
-1.2236109e-10
-1.2048548e-10
-1.1841053e-10
-1.1655742e-10
-1.1455606e-10
-1.1272497e-10
-1.1079287e-10
-1.0898266e-10
-1.0711556e-10
-1.0532494e-10
-1.0351837e-10
-1.0174552e-10
-9.9994074e-11
-9.8236184e-11
-9.6535458e-11
-9.4790389e-11
-9.3135198e-11
-9.139963e-11
-8.9784527e-11
-8.8055111e-11
-8.6474728e-11
-8.4746905e-11
-8.3195545e-11
-8.146529e-11
-7.9936293e-11
-7.8196946e-11
-7.668409e-11
-7.4930912e-11
-7.3427172e-11
-7.165162e-11
-7.0148919e-11
-6.8343576e-11
-6.6833861e-11
-6.4988517e-11
-6.3463494e-11
-6.1569954e-11
-6.0045642e-11
-4.3227285e-11
-8.9649639e-11
-1.3310536e-10
-1.7938478e-10
-2.3677906e-10
-2.8235668e-10
-3.3175173e-10
-3.6743591e-10
-4.0279973e-10
-4.2663256e-10
-4.4769391e-10
-4.6042065e-10
-4.7004637e-10
-4.7439577e-10
-4.7573854e-10
-4.7404045e-10
-4.6957012e-10
-4.6373199e-10
-4.553788e-10
-4.4682029e-10
-4.3596417e-10
-4.2572363e-10
-4.1336459e-10
-4.0223265e-10
-3.890795e-10
-3.7761631e-10
-3.6414918e-10
-3.5274733e-10
-3.3929652e-10
-3.282307e-10
-3.150099e-10
-3.0447071e-10
-2.7966e-10
-2.7690583e-10
-2.7350614e-10
-2.7062369e-10
-2.6718556e-10
-2.6419021e-10
-2.6073862e-10
-2.5765582e-10
-2.5422401e-10
-2.5107482e-10
-2.4767778e-10
-2.4447186e-10
-2.4112097e-10
-2.3787249e-10
-2.3458374e-10
-2.3131082e-10
-2.28099e-10
-2.2481306e-10
-2.2168364e-10
-2.1839431e-10
-2.1535358e-10
-2.1206956e-10
-2.0912191e-10
-2.0585182e-10
-2.0300077e-10
-1.9975193e-10
-1.9699951e-10
-1.9377854e-10
-1.9112588e-10
-1.8793807e-10
-1.8536918e-10
-1.8224814e-10
-1.7972483e-10
-1.7671185e-10
-1.7421273e-10
-1.7130501e-10
-1.6883207e-10
-1.6602702e-10
-1.6358174e-10
-1.6087583e-10
-1.5845869e-10
-1.5584772e-10
-1.5345873e-10
-1.509379e-10
-1.4857617e-10
-1.4614044e-10
-1.4380484e-10
-1.4144888e-10
-1.3913759e-10
-1.3685506e-10
-1.3456489e-10
-1.3235015e-10
-1.30079e-10
-1.2792604e-10
-1.2567003e-10
-1.2357209e-10
-1.2132753e-10
-1.1927801e-10
-1.170392e-10
-1.1503093e-10
-1.1279355e-10
-1.1081833e-10
-1.0857384e-10
-1.0662387e-10
-1.0436674e-10
-1.0243276e-10
-1.0015237e-10
-9.8225152e-11
-9.5912382e-11
-9.3980648e-11
-9.1623239e-11
-8.9678235e-11
-8.7266681e-11
-8.5339359e-11
-4.362481e-11
-9.5759017e-11
-1.4660872e-10
-2.0014853e-10
-2.6828233e-10
-3.2360533e-10
-3.8481034e-10
-4.300815e-10
-4.7608195e-10
-5.0801107e-10
-5.3725223e-10
-5.5583485e-10
-5.7098306e-10
-5.790548e-10
-5.8361594e-10
-5.8384403e-10
-5.8073543e-10
-5.7540639e-10
-5.6699785e-10
-5.5788376e-10
-5.4592845e-10
-5.3436238e-10
-5.2015397e-10
-5.0716885e-10
-4.9165276e-10
-4.7799933e-10
-4.6183348e-10
-4.4805112e-10
-4.3169761e-10
-4.1817347e-10
-4.0194196e-10
-3.8894943e-10
-3.5780337e-10
-3.5462212e-10
-3.5066699e-10
-3.4729045e-10
-3.4323896e-10
-3.3968914e-10
-3.3557911e-10
-3.3189166e-10
-3.2777066e-10
-3.2397358e-10
-3.1986305e-10
-3.1596996e-10
-3.1188864e-10
-3.0791997e-10
-3.0389131e-10
-2.9987086e-10
-2.959166e-10
-2.918619e-10
-2.8799226e-10
-2.8391612e-10
-2.8014103e-10
-2.7605605e-10
-2.7238326e-10
-2.6830187e-10
-2.6473824e-10
-2.6067147e-10
-2.5722157e-10
-2.5317921e-10
-2.4984621e-10
-2.4583637e-10
-2.4260172e-10
-2.3866801e-10
-2.3548475e-10
-2.3168048e-10
-2.2852228e-10
-2.2484476e-10
-2.2171463e-10
-2.1816162e-10
-2.1506215e-10
-2.1163031e-10
-2.0856294e-10
-2.0524797e-10
-2.0221342e-10
-1.9901017e-10
-1.9600796e-10
-1.9291074e-10
-1.8993999e-10
-1.8694264e-10
-1.8400155e-10
-1.8109676e-10
-1.7818178e-10
-1.7536261e-10
-1.7247168e-10
-1.6973123e-10
-1.6685979e-10
-1.641899e-10
-1.6133386e-10
-1.5872636e-10
-1.5587856e-10
-1.5332464e-10
-1.5048018e-10
-1.4796953e-10
-1.4511748e-10
-1.426405e-10
-1.3977384e-10
-1.3731786e-10
-1.3442294e-10
-1.3197722e-10
-1.2904192e-10
-1.2659e-10
-1.2359837e-10
-1.2113013e-10
-1.1806832e-10
-1.1563892e-10
-4.2303916e-11
-9.7491276e-11
-1.5484407e-10
-2.1425233e-10
-2.917507e-10
-3.5606742e-10
-4.2864996e-10
-4.8358504e-10
-5.4065577e-10
-5.813157e-10
-6.1969542e-10
-6.4507351e-10
-6.6688526e-10
-6.7967673e-10
-6.8857331e-10
-6.9165782e-10
-6.9090737e-10
-6.8689016e-10
-6.7926333e-10
-6.7025171e-10
-6.5787113e-10
-6.4549825e-10
-6.2996223e-10
-6.1551526e-10
-5.9802515e-10
-5.8246395e-10
-5.6387653e-10
-5.4790629e-10
-5.2883518e-10
-5.1297344e-10
-4.9384238e-10
-4.7846099e-10
-4.408625e-10
-4.3737546e-10
-4.3300237e-10
-4.2923732e-10
-4.2468675e-10
-4.2067226e-10
-4.1599807e-10
-4.1178225e-10
-4.070491e-10
-4.0266711e-10
-3.9790361e-10
-3.933734e-10
-3.8860774e-10
-3.8395747e-10
-3.7922263e-10
-3.7448238e-10
-3.6980802e-10
-3.6500245e-10
-3.6040545e-10
-3.5555122e-10
-3.510459e-10
-3.4615996e-10
-3.4175852e-10
-3.3685792e-10
-3.3257174e-10
-3.2767205e-10
-3.2350919e-10
-3.1862399e-10
-3.1459046e-10
-3.0973123e-10
-3.0580641e-10
-3.0102753e-10
-2.9715579e-10
-2.925236e-10
-2.8867375e-10
-2.8418612e-10
-2.8036233e-10
-2.7601773e-10
-2.7222393e-10
-2.6801957e-10
-2.6425832e-10
-2.6019019e-10
-2.564631e-10
-2.5252594e-10
-2.4883309e-10
-2.4502085e-10
-2.4136168e-10
-2.3766743e-10
-2.3404016e-10
-2.3045568e-10
-2.2685641e-10
-2.2337367e-10
-2.1980042e-10
-2.1641151e-10
-2.1285886e-10
-2.0955434e-10
-2.0601786e-10
-2.0278767e-10
-1.992584e-10
-1.9609228e-10
-1.9256445e-10
-1.8944926e-10
-1.859093e-10
-1.8283391e-10
-1.7927254e-10
-1.7621963e-10
-1.7261981e-10
-1.695773e-10
-1.659224e-10
-1.6286699e-10
-1.5913712e-10
-1.5605704e-10
-1.5223089e-10
-1.4922228e-10
-3.9950431e-11
-9.5220017e-11
-1.5783617e-10
-2.2147482e-10
-3.0638575e-10
-3.7834869e-10
-4.6110938e-10
-5.2516584e-10
-5.929962e-10
-6.424578e-10
-6.9037037e-10
-7.23088e-10
-7.5234211e-10
-7.7061675e-10
-7.84775e-10
-7.9154293e-10
-7.9408813e-10
-7.9218046e-10
-7.8620825e-10
-7.7802084e-10
-7.6598922e-10
-7.5343759e-10
-7.3723914e-10
-7.2185887e-10
-7.0295281e-10
-6.8591857e-10
-6.6536993e-10
-6.4756249e-10
-6.2614801e-10
-6.0822669e-10
-5.8649687e-10
-5.6894348e-10
-5.251317e-10
-5.2150299e-10
-5.1690324e-10
-5.1290127e-10
-5.0802084e-10
-5.036795e-10
-4.9859106e-10
-4.9397307e-10
-4.8876028e-10
-4.8390716e-10
-4.7860588e-10
-4.7354011e-10
-4.6818996e-10
-4.6294873e-10
-4.5759401e-10
-4.5221411e-10
-4.468931e-10
-4.4140657e-10
-4.3614446e-10
-4.3057267e-10
-4.2538889e-10
-4.1975326e-10
-4.1466538e-10
-4.0898824e-10
-4.0401343e-10
-3.9831567e-10