/*--------------------------------*- C++ -*----------------------------------*\
| =========                 |                                                 |
| \\      /  F ield         | OpenFOAM: The Open Source CFD Toolbox           |
|  \\    /   O peration     | Version:  2406                                  |
|   \\  /    A nd           | Website:  www.openfoam.com                      |
|    \\/     M anipulation  |                                                 |
\*---------------------------------------------------------------------------*/
FoamFile
{
    version     2.0;
    format      ascii;
    arch        "LSB;label=32;scalar=64";
    class       volScalarField;
    location    "0";
    object      initialResidual:p;
}
// * * * * * * * * * * * * * * * * * * * * * * * * * * * * * * * * * * * * * //

dimensions      [0 0 0 0 0 0 0];

internalField   nonuniform List<scalar> 
24384
(
1.1355823e-12
1.2544661e-12
1.2736348e-12
2.4836438e-12
2.7019275e-12
2.4302356e-12
1.3696905e-12
1.7746074e-12
2.2622368e-12
2.9905635e-12
6.9240419e-12
9.0258848e-12
3.007652e-12
1.7697012e-11
2.0123887e-12
1.8551474e-12
1.4963694e-12
2.2218752e-12
2.1112896e-12
1.6056096e-12
8.2433651e-13
9.1570835e-13
1.0654132e-12
1.4041331e-12
2.6341718e-12
3.4171895e-12
2.7916828e-12
5.1011812e-12
2.5885714e-12
1.4475485e-12
8.347927e-13
1.0996592e-12
1.0567931e-12
8.4812622e-13
5.0002145e-13
5.833135e-13
7.3288361e-13
1.058604e-12
1.8361001e-12
2.4040304e-12
2.4415945e-12
3.1812916e-12
3.1197766e-12
1.1985816e-12
6.6228754e-13
9.244134e-13
9.5823574e-13
8.4701656e-13
5.3743642e-13
6.1495952e-13
7.7200786e-13
1.1434829e-12
1.8867994e-12
2.4374606e-12
2.7154928e-12
3.2984209e-12
3.5698577e-12
1.0715852e-12
5.4555552e-13
7.8208208e-13
8.1088974e-13
6.7040273e-13
4.5503957e-13
5.1304504e-13
6.8375906e-13
1.0552886e-12
1.6572393e-12
2.1179258e-12
2.3264157e-12
2.4375762e-12
4.2981632e-12
1.3886017e-12
7.1522626e-13
9.7129912e-13
1.0181928e-12
8.992081e-13
6.0236916e-13
6.4662943e-13
8.3365591e-13
1.2644246e-12
1.9658915e-12
2.4764145e-12
2.8857366e-12
3.3307139e-12
4.6836491e-12
1.7480861e-12
8.1288694e-13
1.0511771e-12
1.0855577e-12
9.344075e-13
6.3147154e-13
6.5817475e-13
8.6835203e-13
1.3293589e-12
2.0246821e-12
2.5160229e-12
2.963917e-12
3.3926334e-12
4.7936602e-12
2.3897906e-12
9.4410046e-13
1.1652249e-12
1.1590303e-12
9.4331408e-13
6.4855373e-13
6.5286151e-13
8.9167052e-13
1.372749e-12
2.0463158e-12
2.5089035e-12
2.9659441e-12
3.3233773e-12
4.5374231e-12
3.142314e-12
1.2119314e-12
1.353224e-12
1.3147537e-12
1.0320001e-12
7.1214562e-13
6.8908509e-13
9.5882084e-13
1.4610067e-12
2.1616139e-12
2.6045673e-12
3.1427628e-12
3.5280319e-12
3.8958392e-12
3.827543e-12
1.6942133e-12
1.6108801e-12
1.5327679e-12
1.1774568e-12
8.1326026e-13
7.5649729e-13
1.0616061e-12
1.5889207e-12
2.3331929e-12
2.7696581e-12
3.430521e-12
3.8820802e-12
2.9573029e-12
3.911561e-12
2.5356171e-12
2.0688208e-12
1.7906021e-12
1.2999148e-12
8.9042745e-13
8.0146991e-13
1.1370334e-12
1.6704784e-12
2.4381454e-12
2.824347e-12
3.5574307e-12
3.8458789e-12
2.2080058e-12
3.0929949e-12
3.1508625e-12
2.810013e-12
2.2801304e-12
1.4680443e-12
1.0076135e-12
8.5779625e-13
1.2466201e-12
1.7753779e-12
2.5759629e-12
2.9249416e-12
3.7125897e-12
3.9474283e-12
1.6005659e-12
2.3018431e-12
3.0539075e-12
4.3674475e-12
3.1482273e-12
1.7322231e-12
1.1847722e-12
9.5388463e-13
1.4031609e-12
1.9311329e-12
2.7674346e-12
3.0998298e-12
3.9275458e-12
3.6793021e-12
1.1469927e-12
1.6630894e-12
2.207492e-12
5.4976076e-12
4.4771859e-12
2.3070234e-12
1.4576862e-12
1.0789156e-12
1.6133296e-12
2.1025109e-12
3.046918e-12
3.3401268e-12
4.1804383e-12
8.7844817e-13
9.6795096e-13
1.4415819e-12
2.3910109e-12
4.8623545e-12
5.621863e-12
3.8810842e-12
1.9821177e-12
1.4298167e-12
2.0960459e-12
2.5414049e-12
3.7650456e-12
4.044671e-12
4.3557259e-12
1.6466206e-11
8.9849285e-13
1.2067923e-12
1.807887e-12
3.9904784e-12
6.9966718e-12
5.038007e-12
3.0266781e-12
1.9800305e-12
2.3581548e-12
3.3414139e-12
2.9560075e-12
9.1897527e-12
4.0062691e-12
1.6977891e-11
7.0546737e-13
9.9523034e-13
1.49019e-12
3.2475646e-12
5.4879328e-12
5.9245909e-12
4.929662e-12
2.8664377e-12
2.810743e-12
4.770434e-12
6.0118421e-12
4.1865039e-12
1.5455574e-11
5.4903297e-12
2.3012641e-13
4.6842694e-13
9.2461287e-13
2.1967397e-12
3.7659152e-12
4.5398751e-12
5.3549779e-12
4.0857005e-12
5.0313575e-12
4.7596065e-12
1.0317349e-11
-4.5627375e-12
1.3519584e-11
1.8665038e-11
1.314596e-13
1.7230154e-13
8.2846339e-13
1.7277817e-12
2.8390495e-12
3.280978e-12
4.6163793e-12
9.3565376e-12
5.9853333e-12
7.1890251e-12
7.6385153e-12
1.0016561e-11
1.0265358e-11
1.9522522e-11
3.1588086e-13
3.5610583e-13
7.5494782e-13
1.6440629e-12
3.2743989e-12
3.0859881e-12
5.73868e-12
1.3492101e-12
1.3768826e-11
1.5296139e-11
1.402563e-11
1.0431885e-11
2.0333097e-11
2.761864e-11
3.3819261e-13
3.809822e-13
9.2101549e-13
1.5826567e-12
3.0878962e-12
2.8289056e-12
3.2964885e-12
4.0572777e-12
1.617559e-11
1.8362215e-11
2.845473e-11
1.1903843e-11
3.2670944e-11
4.2109496e-11
7.9958769e-14
1.221792e-13
4.4291703e-13
1.090778e-12
2.0894302e-12
2.2076737e-12
3.1911985e-12
4.0508537e-12
1.0032943e-11
7.7518264e-12
5.3112269e-11
9.5768852e-11
2.1881216e-11
6.3931567e-11
-1.0879631e-13
-1.7838813e-13
1.8713787e-13
8.9941024e-13
1.4144927e-12
1.344593e-12
2.3731653e-12
2.8025878e-12
7.4608767e-12
1.6176716e-11
2.7278086e-11
4.6038677e-11
1.3285206e-10
1.3229656e-10
-2.7587826e-14
-3.0760502e-14
1.5169246e-13
6.1938698e-13
1.7878499e-12
1.62418e-12
2.3804909e-12
3.0126812e-12
7.3574795e-12
1.1120397e-11
2.3582978e-12
9.8667553e-12
1.4234149e-10
2.3206273e-10
7.7202804e-14
7.837015e-14
2.937393e-13
9.7179193e-13
1.621803e-12
1.7146018e-12
2.6862889e-12
2.8678897e-12
6.4581399e-12
1.0956051e-11
2.1396378e-11
2.8501146e-11
5.9166464e-11
3.9676226e-10
-8.4315651e-14
-1.4369622e-13
1.1678546e-13
3.5119166e-13
1.0316628e-12
1.0832639e-12
1.6731696e-12
2.7818564e-12
6.4352457e-12
6.1087259e-12
1.9053754e-11
4.3463022e-12
5.8016596e-11
3.3755208e-10
-1.7196966e-13
-2.0756691e-13
-1.5609791e-13
1.1553188e-14
3.5108104e-13
3.2826362e-13
1.4344118e-12
1.6864877e-12
2.8973168e-12
8.5920199e-12
1.7659725e-11
-1.281014e-11
4.6265663e-11
-5.086608e-12
6.3645007e-15
9.3368015e-15
1.2512843e-13
1.9232784e-13
6.009966e-13
5.2003514e-13
1.0686675e-12
2.3241512e-12
4.9809744e-12
4.4194091e-12
7.211317e-12
2.8778599e-11
1.2515154e-11
6.1012985e-11
1.3183448e-13
1.9635187e-13
3.0494826e-13
4.3074491e-13
7.1108407e-13
6.5244936e-13
1.4163039e-12
2.1101902e-12
3.3581026e-12
8.3128934e-12
1.2488646e-11
5.4974297e-12
3.6065908e-11
-7.6995291e-12
1.1694598e-13
1.5680064e-13
2.1096476e-13
1.9854889e-13
2.7957728e-13
1.553731e-13
5.1518963e-13
1.4609816e-12
3.0392529e-12
3.7966303e-12
6.1639513e-12
1.4141308e-11
2.0276753e-11
-6.3676618e-12
1.7473426e-13
2.274158e-13
2.3097747e-13
1.8687057e-13
1.4153241e-13
-4.9462082e-14
2.9753098e-13
9.1566503e-13
9.1392804e-13
4.527733e-12
5.411056e-12
1.9011248e-12
1.9105868e-11
2.9082545e-12
2.9064895e-13
3.6353891e-13
4.4081943e-13
5.2994898e-13
5.5831555e-13
4.9069881e-13
6.2930278e-13
1.1647465e-12
1.7753843e-12
3.7755213e-12
4.9933351e-12
8.3448742e-12
1.5699644e-11
4.3370266e-12
2.7254848e-13
3.473816e-13
4.4602709e-13
5.8980161e-13
6.7436599e-13
6.8801732e-13
8.8574337e-13
1.1387107e-12
1.0722885e-12
5.059259e-12
5.0662193e-12
5.4066606e-12
1.6378931e-11
6.952787e-12
2.4880118e-13
3.2972589e-13
3.7862385e-13
4.7243348e-13
4.5527217e-13
4.63056e-13
5.7071857e-13
7.7767051e-13
2.2813323e-13
2.0943757e-12
4.6969341e-13
4.3911625e-12
5.2054272e-12
1.2214369e-11
1.7516645e-13
3.1705783e-13
3.930627e-13
5.420811e-13
5.522283e-13
5.219725e-13
8.0921287e-13
6.877409e-13
-6.6726173e-13
2.767283e-12
1.1061766e-12
-6.2241446e-12
4.7897059e-12
2.8513079e-11
1.6816558e-13
2.8158593e-13
3.7402967e-13
5.4780002e-13
7.1248271e-13
8.5964233e-13
1.2069088e-12
1.3508845e-12
9.1089779e-13
3.2522632e-12
2.395076e-13
7.8892415e-12
4.0677554e-12
-1.5195365e-12
2.5872575e-13
3.3464697e-13
3.1273319e-13
4.9932861e-13
6.4548123e-13
7.8421907e-13
1.3033989e-12
1.3732292e-12
5.5986464e-13
4.0337358e-12
8.8173532e-13
2.9941879e-12
6.4945901e-12
-9.0397285e-12
2.3205518e-13
2.4981949e-13
2.9487787e-13
4.7405625e-13
6.8271309e-13
7.583754e-13
1.1374066e-12
1.2341046e-12
4.5467529e-13
2.4014047e-12
-2.1785741e-12
5.0281078e-12
-1.5528243e-12
-1.5209017e-11
2.5869615e-13
2.5026519e-13
2.491094e-13
3.8401708e-13
6.1272364e-13
8.3851951e-13
1.2445813e-12
1.4695174e-12
9.6239966e-13
3.0150032e-12
-1.8263061e-13
3.0407816e-12
-1.4481255e-12
-1.3784675e-12
3.0858892e-13
2.9850082e-13
2.5437308e-13
3.8160867e-13
5.4376638e-13
6.7701376e-13
1.1711602e-12
1.6262476e-12
1.6184741e-12
3.4585298e-12
1.4419958e-12
7.3984249e-12
1.6877985e-12
-3.0709865e-12
3.5406491e-13
3.5047648e-13
3.4857835e-13
3.7470055e-13
4.4424166e-13
7.2048464e-13
1.1038327e-12
1.550428e-12
1.8018528e-12
2.6548703e-12
1.6860012e-12
7.8464702e-12
2.0043634e-12
-7.4494537e-12
3.7665332e-13
4.4472552e-13
4.0236321e-13
4.7786507e-13
4.9832296e-13
7.9529957e-13
1.1822655e-12
1.6609904e-12
1.8682914e-12
3.0544338e-12
3.4169513e-12
5.1756754e-12
1.0841595e-12
-2.0591871e-11
4.215584e-13
4.5821218e-13
5.9856202e-13
6.1522703e-13
6.2741376e-13
9.1642576e-13
1.0972429e-12
1.5619944e-12
2.3457905e-12
3.0075085e-12
5.1324497e-12
6.7902913e-12
-5.9983112e-13
1.9737148e-12
5.185688e-13
5.5544287e-13
7.0342992e-13
6.9966623e-13
6.8965703e-13
9.3573309e-13
1.1318029e-12
1.6040613e-12
2.3178094e-12
3.559704e-12
8.0740016e-12
-7.6452678e-14
1.8169575e-11
-4.5496133e-12
5.8069388e-13
6.2213001e-13
8.4461269e-13
8.2705715e-13
8.3194829e-13
1.1256995e-12
1.4263471e-12
1.3899351e-12
3.1337872e-12
3.5287821e-12
7.4729989e-12
1.1717614e-11
2.0187025e-11
-1.5967471e-11
6.5248503e-13
7.2045313e-13
8.3145394e-13
9.2029064e-13
1.1347884e-12
1.375571e-12
1.2414352e-12
2.6386875e-12
3.210549e-12
3.8125555e-12
7.3550311e-12
1.3784982e-11
2.5954991e-11
-1.6795375e-11
6.0998403e-13
7.0366222e-13
8.5720053e-13
9.853642e-13
1.2636217e-12
1.7883681e-12
1.8549309e-12
3.9952226e-12
2.4823184e-12
4.8367882e-12
1.377374e-11
1.8657426e-11
2.6761837e-11
-2.3251699e-11
5.4806745e-13
6.4521571e-13
7.9026972e-13
9.6059956e-13
1.1518779e-12
2.0327226e-12
2.6250278e-12
3.4391227e-12
4.9550684e-12
5.3194046e-12
1.0968546e-11
2.1420416e-11
3.0401614e-11
-2.8524768e-11
1.8888967e-11
-3.7296053e-12
8.9521475e-12
7.7909066e-12
4.1710124e-12
5.0494892e-12
1.2784905e-11
1.9682836e-11
-2.3265782e-11
-6.5147086e-13
2.7294525e-13
-1.6711777e-12
-6.2797779e-13
-3.6540941e-13
4.9958227e-12
1.0045646e-11
-1.6343374e-11
-2.5067312e-12
2.3686962e-13
1.3378812e-14
6.3942694e-12
-5.9248543e-12
2.5515866e-12
-3.9616803e-12
-2.331188e-13
4.9053514e-13
-1.3968528e-12
-6.868237e-13
2.4732761e-12
-3.0475328e-12
2.5976873e-12
-2.0379996e-12
-8.8310118e-14
1.5708871e-13
1.3187969e-13
-1.0471634e-13
-5.2165329e-13
-7.7877309e-14
1.948775e-12
1.9214461e-13
-1.0775886e-12
-6.5475656e-13
1.6790501e-12
5.4022826e-13
4.0016252e-14
-1.5438487e-13
4.5085465e-13
5.6046035e-13
2.9673139e-13
4.3114698e-13
2.5187373e-13
6.1677941e-14
2.3137476e-13
4.256942e-13
1.3675762e-12
3.8703705e-13
4.7835389e-13
8.8642742e-13
7.602146e-13
4.6175331e-14
2.2626197e-13
6.3591231e-13
1.4217855e-12
-9.0363081e-14
3.6711814e-13
3.3853667e-13
3.4196979e-13
2.6927459e-13
7.768848e-14
-9.03526e-14
-4.2059555e-14
2.9964234e-14
4.1509377e-13
5.4075871e-13
1.467391e-12
-7.9849234e-14
-1.3095616e-12
5.633992e-13
3.2569135e-12
4.881875e-13
-4.5580601e-12
4.7570203e-13
-5.8379792e-13
-6.109982e-13
9.36495e-14
-3.1971969e-13
-1.0905314e-12
-1.1061702e-12
-1.3360208e-13
-1.7652883e-12
6.2197849e-12
2.8566802e-12
-6.7124764e-12
-5.4966308e-12
4.8330338e-12
4.7419121e-12
-6.4019445e-12
-1.8666117e-12
-7.393854e-12
-3.4193595e-12
-6.4084233e-13
9.667736e-13
-3.3065594e-12
-3.2860641e-12
-1.6094559e-12
-1.0420153e-11
4.6823475e-12
1.046856e-12
3.4647452e-12
2.9759003e-12
1.710846e-12
1.7561771e-12
2.7651714e-12
4.2578219e-12
-3.2572624e-12
-9.3123765e-15
1.7650937e-13
-6.2517135e-13
-7.5034059e-14
-5.8931039e-13
5.6948301e-13
2.0713144e-12
-2.6367586e-12
-8.7898817e-13
1.6447167e-13
1.2472139e-13
1.0618964e-12
-9.8538356e-13
3.6257149e-13
-5.9009856e-13
-4.089866e-14
2.2310399e-13
-4.9320989e-13
-2.2189089e-13
4.1029302e-13
-5.3978902e-13
6.1584049e-13
-2.8079048e-13
1.9001233e-14
8.0162355e-14
6.0902204e-14
-4.0402639e-14
-1.7432056e-13
-1.1017863e-13
5.1499962e-13
-1.1007948e-13
-2.2044609e-13
-6.5654595e-14
4.9167137e-13
7.644692e-14
5.7744e-14
1.3495043e-13
1.669274e-13
2.2323897e-13
1.0858646e-13
1.48656e-13
7.5287013e-14
1.9412113e-14
6.1444112e-14
1.2920869e-13
2.5647229e-13
1.8308937e-13
1.6356653e-13
1.4978699e-13
1.4823724e-13
-6.5612121e-15
3.6733965e-14
5.4010823e-14
2.47983e-13
2.8118286e-14
-4.5284237e-15
-7.1709513e-15
3.697566e-15
-6.4842418e-14
-1.8374234e-13
-2.2526079e-13
-2.2472312e-13
-1.8610517e-13
-1.3273968e-13
-1.0106285e-13
2.2210689e-14
-2.6166533e-13
-4.7792602e-13
-1.3336061e-13
4.6457166e-13
-1.6128664e-13
-1.2779869e-12
-2.0558918e-13
-5.777445e-13
-6.2557004e-13
-4.1554844e-13
-5.7431072e-13
-8.5475547e-13
-8.8979001e-13
-5.6815172e-13
-1.1632587e-12
6.0552558e-13
-5.8983476e-14
-1.9653642e-12
-1.8118962e-12
1.4978364e-13
4.2104812e-13
-1.437504e-12
2.1150474e-13
-2.8062207e-12
-1.3965534e-12
-5.0771055e-14
1.0080793e-12
-5.6775431e-13
-1.7805537e-13
1.0374575e-12
-2.4718224e-12
2.434789e-12
1.2680259e-12
2.207052e-12
1.7576654e-12
8.5274995e-13
7.9542568e-13
1.0501705e-12
1.7384713e-12
-1.2198156e-12
-2.0426749e-13
-2.0310533e-13
-7.5458101e-13
-2.0827951e-13
-8.0967754e-13
-2.5115628e-13
7.32274e-13
-1.1652086e-12
-7.972165e-13
-9.7149693e-14
-3.764935e-14
2.1624261e-13
-6.0544849e-13
-7.1175742e-14
-3.4714178e-13
-1.778959e-13
3.1245637e-14
-4.7101087e-13
-2.7994619e-13
3.1983523e-14
-3.4203423e-13
2.5102108e-13
-1.8052636e-13
-6.7864581e-14
-6.3848692e-14
-5.4191084e-14
-1.3667872e-13
-2.1004705e-13
-2.0464593e-13
1.8146759e-13
-2.2210549e-13
-1.6972768e-13
-1.0451399e-13
1.9691869e-13
-3.9602008e-14
-2.0290153e-14
6.3647052e-14
3.8807194e-14
9.6002228e-14
1.5643147e-14
3.4920898e-14
-1.8367953e-14
-1.3288989e-14
-5.2558946e-15
2.9363268e-14
6.7406269e-14
1.0078427e-13
7.1491342e-14
1.7134377e-14
4.6744625e-14
-5.0457816e-14
-3.7086399e-14
-2.1656403e-14
4.4463346e-14
-1.5942571e-14
-8.9344572e-14
-5.8945591e-14
-3.9518155e-14
-1.2391265e-13
-2.4440428e-13
-2.2648768e-13
-2.3205095e-13
-1.8983185e-13
-1.6283486e-13
-1.4578258e-13
-1.2837081e-13
-2.6578487e-13
-3.5749307e-13
-2.187132e-13
2.6350334e-14
-2.0994693e-13
-7.1666692e-13
-3.2413511e-13
-5.3990024e-13
-5.8067775e-13
-5.4494113e-13
-6.4362813e-13
-7.7942272e-13
-8.3921326e-13
-7.6426185e-13
-1.0468156e-12
-4.4959856e-13
-7.3139778e-13
-1.409615e-12
-1.4136295e-12
-8.8098404e-13
-8.5175656e-13
-1.3493292e-12
-6.1255329e-13
-2.2029362e-12
-1.795991e-12
-1.4286034e-12
-1.0003977e-12
-1.9320479e-12
-1.880771e-12
-1.785776e-12
-3.475783e-12
2.2246672e-12
1.4945637e-12
2.1334483e-12
1.5712106e-12
6.4292523e-13
5.1755565e-13
4.9842929e-13
1.075947e-12
-1.1980139e-12
-4.9928379e-13
-6.8948605e-13
-1.3031889e-12
-6.061442e-13
-1.3914515e-12
-8.6647944e-13
1.7224854e-13
-1.3087384e-12
-1.2049748e-12
-3.7781448e-13
-3.2107501e-13
-2.4099327e-13
-8.2389748e-13
-4.2763577e-13
-5.6919454e-13
-4.3457777e-13
-2.8284052e-13
-7.3444665e-13
-4.9573215e-13
-2.3216267e-13
-5.1819157e-13
6.8919315e-14
-3.1474308e-13
-2.2160113e-13
-2.2076002e-13
-2.3499353e-13
-3.1262666e-13
-3.6548922e-13
-3.8798043e-13
-2.3605856e-14
-3.8192254e-13
-2.9828484e-13
-2.3882936e-13
2.6601059e-14
-1.804782e-13
-1.4895695e-13
-6.6439375e-14
-8.6375753e-14
-7.972074e-15
-9.8313782e-14
-8.5645699e-14
-1.270561e-13
-1.4691721e-13
-1.3080964e-13
-8.8583282e-14
-9.1178315e-14
-6.2997853e-15
-4.4622145e-14
-1.3077077e-13
-9.3988007e-14
-1.7330435e-13
-1.693881e-13
-1.7458282e-13
-1.185066e-13
-1.3246769e-13
-2.4699757e-13
-2.2989354e-13
-2.1051407e-13
-3.1505042e-13
-4.5768787e-13
-4.4191123e-13
-4.5981451e-13
-4.2456972e-13
-4.1004494e-13
-4.0808193e-13
-4.300794e-13
-5.5478769e-13
-6.3563705e-13
-5.381212e-13
-3.3581093e-13
-5.5499113e-13
-1.0398549e-12
-7.8572391e-13
-9.783662e-13
-1.061633e-12
-1.1044728e-12
-1.2022148e-12
-1.3731567e-12
-1.4888292e-12
-1.4882497e-12
-1.8156795e-12
-1.3564009e-12
-1.647144e-12
-2.2442321e-12
-2.3579664e-12
-2.1146909e-12
-2.0554546e-12
-2.4128139e-12
-1.9371195e-12
-3.4992797e-12
-3.3295939e-12
-3.1382014e-12
-2.8807564e-12
-3.8715964e-12
-4.0025555e-12
-4.4238254e-12
-6.2712321e-12
1.1229384e-12
1.0486621e-12
1.2535277e-12
6.4545491e-13
-3.2835877e-13
-4.3988075e-13
-4.4298625e-13
-8.8231454e-14
-1.2631192e-12
-9.6538723e-13
-1.1069653e-12
-1.4561173e-12
-7.8005017e-13
-1.4219883e-12
-1.1827267e-12
-3.8408337e-13
-1.1090533e-12
-1.2034153e-12
-7.0951977e-13
-4.8529625e-13
-5.2270171e-13
-9.1703803e-13
-6.0596757e-13
-6.1151541e-13
-5.8239566e-13
-3.3559563e-13
-7.4446384e-13
-5.9330493e-13
-4.003625e-13
-5.3460522e-13
-1.5461164e-13
-3.7710018e-13
-3.3418634e-13
-4.0696464e-13
-3.1899554e-13
-4.110639e-13
-4.5599562e-13
-4.7030713e-13
-2.1397415e-13
-5.0201735e-13
-3.6252219e-13
-3.7624385e-13
-1.8820602e-13
-3.0437953e-13
-2.7974223e-13
-2.0921553e-13
-2.696039e-13
-2.16034e-13
-2.7284491e-13
-2.863529e-13
-3.3703322e-13
-2.4670662e-13
-2.8420391e-13
-3.0414609e-13
-2.5896638e-13
-2.1474842e-13
-2.5398557e-13
-3.2693669e-13
-2.8339466e-13
-3.9200788e-13
-4.1374542e-13
-3.7168925e-13
-4.0717621e-13
-4.4063764e-13
-5.4455939e-13
-4.7435767e-13
-4.6860406e-13
-6.1569552e-13
-7.8122852e-13
-7.0612168e-13
-7.2965982e-13
-7.0922212e-13
-6.7900572e-13
-7.0957713e-13
-7.6574763e-13
-9.05775e-13
-9.9249367e-13
-9.632353e-13
-9.2292723e-13
-9.8200358e-13
-1.2491572e-12
-1.2430478e-12
-1.430244e-12
-1.4673472e-12
-1.6843005e-12
-1.7776317e-12
-1.8318677e-12
-1.9958733e-12
-2.2171525e-12
-2.2909207e-12
-2.3769717e-12
-2.585479e-12
-2.877401e-12
-3.0175961e-12
-3.1028472e-12
-3.4312926e-12
-3.6193251e-12
-3.4512706e-12
-4.1473181e-12
-4.449161e-12
-4.9005459e-12
-4.9367342e-12
-5.6161417e-12
-5.8327721e-12
-6.5822304e-12
-7.3789974e-12
1.8667806e-12
1.5303476e-12
1.8979255e-12
1.1314604e-12
-2.5328602e-15
-1.9816529e-13
-4.2772058e-13
1.676619e-14
-1.5804894e-12
-1.1072036e-12
-1.5088139e-12
-2.0617382e-12
-1.1693597e-12
-2.0827011e-12
-1.7038977e-12
-6.6380254e-13
-1.660026e-12
-1.7475897e-12
-9.2541236e-13
-7.6595029e-13
-8.6745994e-13
-1.2584869e-12
-9.298406e-13
-9.4110505e-13
-8.552834e-13
-6.8787172e-13
-1.0880476e-12
-8.3445316e-13
-6.1963839e-13
-7.9972376e-13
-2.5785285e-13
-5.4600367e-13
-4.8809184e-13
-5.3459003e-13
-5.0223844e-13
-5.857512e-13
-6.268104e-13
-6.6046583e-13
-3.5937439e-13
-6.4784648e-13
-5.1806666e-13
-5.0280619e-13
-2.8730644e-13
-4.2150543e-13
-3.8797535e-13
-3.2145339e-13
-3.5394193e-13
-2.6627668e-13
-3.4581918e-13
-3.6956592e-13
-3.9661573e-13
-3.7278149e-13
-3.7924581e-13
-3.7495912e-13
-3.6050015e-13
-2.6664422e-13
-3.128005e-13
-4.1739149e-13
-3.7437459e-13
-4.617373e-13
-4.8264906e-13
-4.7701703e-13
-4.7270256e-13
-4.7435035e-13
-6.4002556e-13
-5.9260745e-13
-5.885718e-13
-7.5691653e-13
-9.4295657e-13
-8.8613967e-13
-9.1741546e-13
-9.1642948e-13
-8.8303485e-13
-9.2683376e-13
-1.0044232e-12
-1.1524575e-12
-1.2460206e-12
-1.2108794e-12
-1.1143948e-12
-1.2697272e-12
-1.6752162e-12
-1.6637873e-12
-1.8375198e-12
-1.9420068e-12
-2.2064205e-12
-2.3057728e-12
-2.4468789e-12
-2.6755564e-12
-2.9108057e-12
-3.1236612e-12
-3.0488962e-12
-3.36194e-12
-3.854327e-12
-4.1018322e-12
-4.2189453e-12
-4.3834603e-12
-4.6783502e-12
-4.6257634e-12
-5.7562313e-12
-6.1112137e-12
-6.5181534e-12
-6.6002256e-12
-7.6170426e-12
-8.0568543e-12
-9.371258e-12
-1.1147496e-11
1.8723779e-12
1.5362406e-12
1.8935286e-12
1.011278e-12
-2.6724373e-13
-4.9432428e-13
-7.8353594e-13
-3.9101792e-13
-1.8002668e-12
-1.402082e-12
-1.8781321e-12
-2.3840773e-12
-1.4352038e-12
-2.3690597e-12
-2.0673376e-12
-1.0397758e-12
-1.8641803e-12
-1.9923722e-12
-1.2062889e-12
-9.9298702e-13
-1.1491678e-12
-1.4861984e-12
-1.1635337e-12
-1.1315234e-12
-1.0635146e-12
-8.7486191e-13
-1.2506679e-12
-9.997222e-13
-8.0337631e-13
-9.4329618e-13
-4.2666243e-13
-6.6594684e-13
-6.2324492e-13
-6.9381946e-13
-6.2944891e-13
-7.157796e-13
-7.5543544e-13
-7.871183e-13
-5.1673787e-13
-7.7571397e-13
-6.3042456e-13
-6.3440594e-13
-4.3785433e-13
-5.3986778e-13
-5.061528e-13
-4.4649454e-13
-4.8970253e-13
-4.0301717e-13
-4.6688782e-13
-5.1882402e-13
-5.3581761e-13
-4.7763503e-13
-4.9866725e-13
-5.2483594e-13
-4.8257273e-13
-3.9789141e-13
-4.4515592e-13
-5.5064993e-13
-5.0785925e-13
-6.0279567e-13
-6.3422481e-13
-6.1965029e-13
-6.3824316e-13
-6.4022917e-13
-8.3243949e-13
-7.6202283e-13
-7.6890536e-13
-9.7365151e-13
-1.1762809e-12
-1.0925652e-12
-1.1243596e-12
-1.1554889e-12
-1.1020205e-12
-1.1713659e-12
-1.2722971e-12
-1.4348019e-12
-1.537081e-12
-1.5295156e-12
-1.4842485e-12
-1.613103e-12
-1.9674971e-12
-2.0623018e-12
-2.2317196e-12
-2.3487841e-12
-2.7097446e-12
-2.8185114e-12
-2.9370191e-12
-3.2215489e-12
-3.5684828e-12
-3.7131129e-12
-3.824591e-12
-4.147844e-12
-4.6007003e-12
-4.9016172e-12
-5.1604322e-12
-5.4624804e-12
-5.7592837e-12
-5.8829411e-12
-6.8000664e-12
-7.4235067e-12
-8.1104504e-12
-8.3111631e-12
-9.4430224e-12
-1.0006974e-11
-1.1683126e-11
-1.3519009e-11
1.864472e-12
1.5019251e-12
1.9020068e-12
8.8614916e-13
-5.6720338e-13
-8.2493355e-13
-1.1532138e-12
-8.4868519e-13
-2.0075617e-12
-1.7244097e-12
-2.2241648e-12
-2.6644395e-12
-1.698606e-12
-2.5855721e-12
-2.3943847e-12
-1.452559e-12
-2.0270809e-12
-2.2053009e-12
-1.521154e-12
-1.2402204e-12
-1.4296079e-12
-1.7054837e-12
-1.3951736e-12
-1.319968e-12
-1.2808842e-12
-1.0362925e-12
-1.4007113e-12
-1.1708987e-12
-9.9628292e-13
-1.0813408e-12
-6.3462768e-13
-7.8701159e-13
-7.7197791e-13
-8.7284922e-13
-7.5491105e-13
-8.4472624e-13
-8.9100596e-13
-9.057681e-13
-6.8157865e-13
-9.0605895e-13
-7.4970301e-13
-7.7191218e-13
-6.043631e-13
-6.7136858e-13
-6.3536626e-13
-5.7822615e-13
-6.4272697e-13
-5.6175767e-13
-6.0109312e-13
-6.8654045e-13
-6.9490989e-13
-5.7661706e-13
-6.2133108e-13
-6.9338019e-13
-6.0603987e-13
-5.494959e-13
-5.9541567e-13
-6.9253297e-13
-6.5399245e-13
-7.5836198e-13
-7.9935698e-13
-7.7351435e-13
-8.2054732e-13
-8.2474249e-13
-1.0351188e-12
-9.3478044e-13
-9.5710344e-13
-1.2029632e-12
-1.4181072e-12
-1.2985097e-12
-1.3267666e-12
-1.3985984e-12
-1.3239789e-12
-1.4213776e-12
-1.5435812e-12
-1.7178903e-12
-1.8293851e-12
-1.8576438e-12
-1.8778062e-12
-1.9707525e-12
-2.2365296e-12
-2.4263403e-12
-2.6321715e-12
-2.7466907e-12
-3.184412e-12
-3.3448552e-12
-3.4005479e-12
-3.7504162e-12
-4.2246511e-12
-4.257764e-12
-4.5864995e-12
-4.9113322e-12
-5.3142468e-12
-5.6615802e-12
-6.0576849e-12
-6.5366394e-12
-6.8747979e-12
-7.1570511e-12
-7.7876354e-12
-8.7404857e-12
-9.7457777e-12
-1.0088673e-11
-1.1390577e-11
-1.2091645e-11
-1.4084168e-11
-1.5941858e-11
2.3153598e-12
1.6486411e-12
2.2813993e-12
1.0728596e-12
-5.7515878e-13
-8.8779775e-13
-1.2871093e-12
-1.0379659e-12
-2.1677128e-12
-1.9603728e-12
-2.5156553e-12
-2.9755678e-12
-1.9793296e-12
-2.8839316e-12
-2.7461406e-12
-1.8178158e-12
-2.2843816e-12
-2.4881862e-12
-1.8216518e-12
-1.5119568e-12
-1.7225315e-12
-1.9662091e-12
-1.6534013e-12
-1.547092e-12
-1.5181752e-12
-1.2323614e-12
-1.5970437e-12
-1.3641213e-12
-1.1992271e-12
-1.2562057e-12
-8.2523655e-13
-9.2166186e-13
-9.2885747e-13
-1.0438681e-12
-8.9403486e-13
-9.8133109e-13
-1.0368822e-12
-1.0390093e-12
-8.3888663e-13
-1.0397296e-12
-8.7765025e-13
-9.0530994e-13
-7.4989603e-13
-7.9539075e-13
-7.5515877e-13
-6.9714065e-13
-7.7742387e-13
-6.9054725e-13
-7.1268127e-13
-8.2862736e-13
-8.2092699e-13
-6.6805327e-13
-7.2354724e-13
-8.2739845e-13
-7.0498026e-13
-6.6370548e-13
-7.0815406e-13
-8.009329e-13
-7.6605505e-13
-8.7392431e-13
-9.2012931e-13
-8.9011091e-13
-9.4741218e-13
-9.4605449e-13
-1.1812191e-12
-1.0623172e-12
-1.0963774e-12
-1.3775158e-12
-1.6000301e-12
-1.4554114e-12
-1.4782797e-12
-1.5905866e-12
-1.4971027e-12
-1.6207048e-12
-1.7609631e-12
-1.9445693e-12
-2.0634213e-12
-2.1150316e-12
-2.1725834e-12
-2.2585983e-12
-2.4673694e-12
-2.7083713e-12
-2.9705296e-12
-3.093068e-12
-3.5654113e-12
-3.8001873e-12
-3.8106512e-12
-4.2275511e-12
-4.7900683e-12
-4.7711668e-12
-5.2334101e-12
-5.5781999e-12
-5.98648e-12
-6.3871944e-12
-6.8856787e-12
-7.4776712e-12
-7.8823525e-12
-8.284236e-12
-8.8268586e-12
-1.0051108e-11
-1.1252617e-11
-1.1702482e-11
-1.3320903e-11
-1.419316e-11
-1.6522453e-11
-1.8810946e-11
2.9413824e-12
2.3206915e-12
2.8813727e-12
1.5698632e-12
-3.1697073e-13
-7.0924616e-13
-1.2182975e-12
-1.0146153e-12
-2.2530027e-12
-2.0884161e-12
-2.749672e-12
-3.2884941e-12
-2.2217068e-12
-3.2032828e-12
-3.0895246e-12
-2.1391877e-12
-2.5880125e-12
-2.8165431e-12
-2.103357e-12
-1.7829478e-12
-2.0149789e-12
-2.2428293e-12
-1.9199726e-12
-1.7954043e-12
-1.768985e-12
-1.4313105e-12
-1.8315432e-12
-1.5800955e-12
-1.4034746e-12
-1.4473693e-12
-1.0021009e-12
-1.0523203e-12
-1.0906667e-12
-1.2100623e-12
-1.0324973e-12
-1.1152162e-12
-1.1912115e-12
-1.1732271e-12
-9.8487138e-13
-1.1675681e-12
-1.0034324e-12
-1.0280692e-12
-8.7531347e-13
-9.0702878e-13
-8.6108423e-13
-7.9856868e-13
-8.9142794e-13
-7.9155715e-13
-8.006198e-13
-9.4114173e-13
-9.1847439e-13
-7.2975041e-13
-7.9174474e-13
-9.2575511e-13
-7.7425338e-13
-7.4105659e-13
-7.8372318e-13
-8.7347022e-13
-8.411969e-13
-9.4690952e-13
-9.9471766e-13
-9.6448149e-13
-1.0200516e-12
-1.0075387e-12
-1.2637672e-12
-1.1318817e-12
-1.1785585e-12
-1.4922038e-12
-1.7209663e-12
-1.5547331e-12
-1.5720265e-12
-1.7173252e-12
-1.6053972e-12
-1.7486039e-12
-1.9024237e-12
-2.0919131e-12
-2.2165029e-12
-2.2819426e-12
-2.3548665e-12
-2.4535303e-12
-2.6219246e-12
-2.8824589e-12
-3.2295751e-12
-3.3550211e-12
-3.8394831e-12
-4.170618e-12
-4.1305084e-12
-4.6179687e-12
-5.2517517e-12
-5.188575e-12
-5.7202718e-12
-6.097093e-12
-6.5517188e-12
-7.0072654e-12
-7.5780068e-12
-8.2340776e-12
-8.7322644e-12
-9.2218271e-12
-9.7626642e-12
-1.123307e-11
-1.2609747e-11
-1.3202085e-11
-1.5144874e-11
-1.6260623e-11
-1.898307e-11
-2.1917967e-11
3.1948106e-12
3.4713638e-12
3.3590791e-12
2.0276212e-12
-9.2988619e-14
-5.4292368e-13
-1.1203967e-12
-1.0386401e-12
-2.1876393e-12
-2.2005965e-12
-2.8811446e-12
-3.4368446e-12
-2.4168864e-12
-3.3528708e-12
-3.3411357e-12
-2.4875309e-12
-2.7499149e-12
-3.0234114e-12
-2.4036084e-12
-2.054568e-12
-2.2804077e-12
-2.4703133e-12
-2.1565898e-12
-1.9973689e-12
-1.9963781e-12
-1.5539687e-12
-2.011579e-12
-1.7824854e-12
-1.6012941e-12
-1.5982018e-12
-1.2144944e-12
-1.1593251e-12
-1.2511092e-12
-1.3874672e-12
-1.1493885e-12
-1.2274697e-12
-1.3308886e-12
-1.2770997e-12
-1.127725e-12
-1.2814952e-12
-1.1126212e-12
-1.1400046e-12
-1.0081449e-12
-1.0137326e-12
-9.5988433e-13
-8.7907622e-13
-9.959426e-13
-9.0064149e-13
-8.8499033e-13
-1.0478212e-12
-1.0153558e-12
-7.6327068e-13
-8.4453689e-13
-1.0214711e-12
-8.2214389e-13
-8.1733938e-13
-8.5352985e-13
-9.2529939e-13
-8.9727038e-13
-1.0051594e-12
-1.0535931e-12
-1.0114094e-12
-1.0797046e-12
-1.062601e-12
-1.3129236e-12
-1.1654653e-12
-1.221999e-12
-1.5569997e-12
-1.7764317e-12
-1.5865819e-12
-1.5920678e-12
-1.7669459e-12
-1.6449541e-12
-1.8079912e-12
-1.9700106e-12
-2.1590582e-12
-2.286393e-12
-2.3769063e-12
-2.4956603e-12
-2.568351e-12
-2.6175875e-12
-2.913863e-12
-3.3648748e-12
-3.4729422e-12
-3.9475127e-12
-4.3805418e-12
-4.2797968e-12
-4.8232421e-12
-5.5059451e-12
-5.391497e-12
-6.0756831e-12
-6.4556493e-12
-6.8897398e-12
-7.3827966e-12
-8.0505046e-12
-8.8486176e-12
-9.4483943e-12
-1.0006747e-11
-1.0488917e-11
-1.2187972e-11
-1.3762603e-11
-1.4598577e-11
-1.682261e-11
-1.8236682e-11
-2.12688e-11
-2.4914167e-11
8.035513e-12
4.9137157e-13
4.1665303e-12
2.7420858e-12
3.8814378e-13
-1.3442815e-13
-7.9604357e-13
-8.3501662e-13
-1.9667897e-12
-2.1730291e-12
-2.8576806e-12
-3.5075405e-12
-2.5203657e-12
-3.4465603e-12
-3.5235039e-12
-2.7775813e-12
-2.869626e-12
-3.2100832e-12
-2.6634869e-12
-2.3083615e-12
-2.5176848e-12
-2.6750002e-12
-2.3747296e-12
-2.1806775e-12
-2.2103432e-12
-1.6554637e-12
-2.1824933e-12
-1.9885666e-12
-1.7859279e-12
-1.739928e-12
-1.4139047e-12
-1.2425624e-12
-1.3965003e-12
-1.5560452e-12
-1.2427323e-12
-1.3241514e-12
-1.4613155e-12
-1.3606769e-12
-1.2463045e-12
-1.3718392e-12
-1.2031279e-12
-1.2251528e-12
-1.1114708e-12
-1.0939677e-12
-1.0293319e-12
-9.2553187e-13
-1.0452649e-12
-9.7883686e-13
-9.3026589e-13
-1.0946376e-12
-1.0770654e-12
-7.4034227e-13
-8.4603601e-13
-1.06584e-12
-8.1966476e-13
-8.3754204e-13
-8.6608226e-13
-9.1858194e-13
-8.9398122e-13
-9.9387976e-13
-1.0380678e-12
-9.8799982e-13
-1.060885e-12
-1.0330594e-12
-1.2650088e-12
-1.111551e-12
-1.1749834e-12
-1.5158435e-12
-1.7173182e-12
-1.51299e-12
-1.5056493e-12
-1.6923492e-12
-1.5713559e-12
-1.7364416e-12
-1.8962865e-12
-2.0805068e-12
-2.2087465e-12
-2.3149576e-12
-2.4596794e-12
-2.5177196e-12
-2.4597917e-12
-2.779822e-12
-3.3140943e-12
-3.4143272e-12
-3.8787044e-12
-4.3783048e-12
-4.2484397e-12
-4.8273147e-12
-5.5245843e-12
-5.394721e-12
-6.1625349e-12
-6.5574242e-12
-7.011916e-12
-7.5394917e-12
-8.2688867e-12
-9.1678343e-12
-9.9017463e-12
-1.0510549e-11
-1.0955424e-11
-1.2824747e-11
-1.4645359e-11
-1.5780985e-11
-1.8192406e-11
-1.9965559e-11
-2.3351496e-11
-2.809508e-11
8.5293647e-12
2.7870756e-12
5.2632733e-12
3.7346123e-12
1.1754093e-12
5.69073e-13
-2.2465069e-13
-3.480758e-13
-1.5648859e-12
-1.9755737e-12
-2.6807999e-12
-3.447377e-12
-2.5333415e-12
-3.4624505e-12
-3.6346341e-12
-2.9933233e-12
-2.9443241e-12
-3.3480374e-12
-2.8720483e-12
-2.5299518e-12
-2.7184244e-12
-2.8516056e-12
-2.5665187e-12
-2.3315856e-12
-2.3951527e-12
-1.7363002e-12
-2.3347936e-12
-2.1676487e-12
-1.9448885e-12
-1.8584721e-12
-1.5800811e-12
-1.3003875e-12
-1.5214811e-12
-1.6913255e-12
-1.3186635e-12
-1.3918367e-12
-1.5598269e-12
-1.4175804e-12
-1.3341102e-12
-1.4347705e-12
-1.2645989e-12
-1.2776678e-12
-1.1772324e-12
-1.1378116e-12
-1.0597226e-12
-9.1897525e-13
-1.0371729e-12
-1.0053793e-12
-9.2384882e-13
-1.0767245e-12
-1.0768164e-12
-6.6914138e-13
-7.9140273e-13
-1.0432334e-12
-7.5180338e-13
-7.8572653e-13
-8.0337576e-13
-8.3272865e-13
-8.0923668e-13
-8.9843262e-13
-9.3433085e-13
-8.7368594e-13
-9.4672971e-13
-9.0545811e-13
-1.1016513e-12