/*--------------------------------*- C++ -*----------------------------------*\
| =========                 |                                                 |
| \\      /  F ield         | OpenFOAM: The Open Source CFD Toolbox           |
|  \\    /   O peration     | Version:  2406                                  |
|   \\  /    A nd           | Website:  www.openfoam.com                      |
|    \\/     M anipulation  |                                                 |
\*---------------------------------------------------------------------------*/
FoamFile
{
    version     2.0;
    format      ascii;
    arch        "LSB;label=32;scalar=64";
    class       volVectorField;
    location    "0";
    object      moment;
}
// * * * * * * * * * * * * * * * * * * * * * * * * * * * * * * * * * * * * * //

dimensions      [1 2 -2 0 0 0 0];

internalField   uniform (0 0 0);

boundaryField
{
    inlet
    {
        type            calculated;
        value           uniform (0 0 0);
    }
    topWall
    {
        type            symmetry;
    }
    jet
    {
        type            calculated;
        value           uniform (0 0 0);
    }
    outlet
    {
        type            calculated;
        value           uniform (0 0 0);
    }
    bottomWall
    {
        type            calculated;
        value           uniform (0 0 0);
    }
    hump
    {
        type            calculated;
        value           nonuniform List<vector> 
240
(
(0.011717525 0.0038613508 -0.010302457)
(0.010739814 0.003269645 -0.0089009709)
(0.0095468869 0.0025272461 -0.0066144958)
(0.0081672781 0.0017264677 -0.0035142837)
(0.0067521389 0.00099534808 2.1417677e-05)
(0.0057435019 0.00068073212 0.0027636711)
(0.0045253447 0.00031193716 0.0066065614)
(0.0033316062 0.00015970118 0.010527626)
(0.0022267926 0.00021564285 0.014256578)
(0.0011502491 0.00042547549 0.017911739)
(-0.0021703248 -0.00014505413 0.02305492)
(-0.0092518464 -0.0032983113 0.034584327)
(-0.011739727 -0.0039613391 0.045866479)
(-0.013459251 -0.0042296103 0.055000648)
(-0.014879127 -0.0044251761 0.06329873)
(-0.016378019 -0.0045947947 0.072418224)
(-0.017842398 -0.0047176142 0.081854465)
(-0.01917935 -0.004780371 0.091227026)
(-0.020688135 -0.0048079647 0.10259689)
(-0.022031534 -0.0047983589 0.1138281)
(-0.023236019 -0.0047839416 0.12449314)
(-0.024449471 -0.0047607676 0.13571758)
(-0.025667963 -0.0047276476 0.1474784)
(-0.026964661 -0.0046805613 0.16061645)
(-0.028516826 -0.0046073537 0.1772656)
(-0.029782261 -0.0045445954 0.19159192)
(-0.027964688 -0.0040599567 0.1851738)
(-0.025146732 -0.0033945008 0.17303162)
(-0.024738116 -0.0031030977 0.17613626)
(-0.024256984 -0.002810035 0.1785565)
(-0.023699246 -0.002514454 0.18022546)
(-0.022972015 -0.002177909 0.181198)
(-0.022205371 -0.0018675985 0.18098623)
(-0.021220795 -0.0015116678 0.17963869)
(-0.020208878 -0.0012047363 0.17688231)
(-0.019255899 -0.00092851378 0.17351609)
(-0.018279207 -0.00069863149 0.1692203)
(-0.017288693 -0.00045759952 0.16424572)
(-0.016305097 -0.00026936647 0.15839055)
(-0.015394192 -0.00011457228 0.15260661)
(-0.014508582 2.3471589e-05 0.14658972)
(-0.013612641 0.00015131018 0.14007242)
(-0.012806781 0.00025135865 0.13383464)
(-0.012034571 0.00033021568 0.12760327)
(-0.011279854 0.00040460535 0.12130444)
(-0.010573295 0.00047057157 0.11511761)
(-0.0099066021 0.00051587804 0.10907238)
(-0.0092731647 0.00054940706 0.1032067)
(-0.0086648645 0.00058369354 0.097421088)
(-0.008121385 0.00061212959 0.092091273)
(-0.007591193 0.00063157679 0.086771896)
(-0.0070385363 0.0006423851 0.081116431)
(-0.0065751223 0.0006456115 0.076290626)
(-0.0061385474 0.00064464572 0.071679472)
(-0.0056835747 0.00063887126 0.066801675)
(-0.005303927 0.00063035942 0.062674796)
(-0.0049478524 0.00061947892 0.058762549)
(-0.0045772387 0.00060457097 0.054644154)
(-0.0042758836 0.0005906749 0.051260198)
(-0.0039822963 0.00057643431 0.047931683)
(-0.0036912729 0.00056117323 0.044596811)
(-0.0034446985 0.0005469942 0.041745787)
(-0.0031867983 0.00053019195 0.038740318)
(-0.002958059 0.00051227262 0.03605643)
(-0.0027461216 0.0004930042 0.033557642)
(-0.0025330248 0.00047065655 0.031033718)
(-0.0023612084 0.00045083864 0.028990587)
(-0.0021744653 0.00042716245 0.026761815)
(-0.002030342 0.00040766486 0.025035667)
(-0.0018800223 0.00038688394 0.023228553)
(-0.0017575039 0.00037154142 0.021745187)
(-0.0016296292 0.00035655069 0.020186691)
(-0.0015207269 0.00034459079 0.018850878)
(-0.0014037601 0.00033139694 0.017409868)
(-0.0013073725 0.00032013122 0.016217878)
(-0.0011961982 0.00030608961 0.014839442)
(-0.0011082043 0.00029404113 0.013746002)
(-0.0010152837 0.00028055103 0.012590139)
(-0.00095074996 0.00027291304 0.011785428)
(-0.00080786499 0.00023861024 0.010012109)
(-0.0010775036 0.00040001589 0.013291365)
(-0.0010230602 0.00039370499 0.012606613)
(-0.00099653686 0.0003986606 0.012263678)
(-0.00095119096 0.00039346736 0.011694066)
(-0.00092018989 0.00039660587 0.01129442)
(-0.0008864168 0.00039705737 0.010863274)
(-0.00086003031 0.00040149716 0.010520413)
(-0.0008347369 0.00040560877 0.010192189)
(-0.00081590803 0.00041347545 0.0099411716)
(-0.00079422306 0.00041894004 0.0096570609)
(-0.00078144878 0.00042896458 0.0094813662)
(-0.00076909203 0.0004381655 0.0093130095)
(-0.00075965309 0.00044806579 0.0091821045)
(-0.00075206444 0.00045766818 0.0090766894)
(-0.00074668509 0.00046716487 0.0090014674)
(-0.00074182656 0.00047697094 0.0089326912)
(-0.00073866447 0.0004876457 0.0088850363)
(-0.00073646075 0.00049648928 0.0088544977)
(-0.00073515892 0.00050610925 0.0088348074)
(-0.00073368522 0.00051654349 0.0088114757)
(-0.00073369087 0.00052571092 0.0088111811)
(-0.00073364002 0.0005355668 0.008809136)
(-0.00073409722 0.00054560338 0.008814088)
(-0.00073500838 0.0005547983 0.008827383)
(-0.0007363184 0.00056427593 0.0088460037)
(-0.00073786065 0.00057391645 0.0088684261)
(-0.0007398416 0.00058270825 0.0088982728)
(-0.00074306721 0.00059240167 0.0089441984)
(-0.00074524016 0.00060032203 0.0089799137)
(-0.00074690416 0.0006078227 0.0090100656)
(-0.00073844913 0.00060642447 0.0089193048)
(-0.00076021542 0.00062834812 0.0091980193)
(-0.00076716258 0.00063904216 0.0092961044)
(-0.0007636755 0.00063966748 0.0092714791)
(-0.0007695245 0.00064698896 0.0093624796)
(-0.00077649423 0.00065536795 0.0094677085)
(-0.00078114006 0.00066149854 0.0095458297)
(-0.00078659617 0.0006686831 0.0096339765)
(-0.00079334724 0.00067580258 0.0097417789)
(-0.00079979393 0.0006831319 0.0098454799)
(-0.00080638011 0.00069037611 0.0099515372)
(-0.00081396039 0.00069674386 0.010073783)
(-0.00082204796 0.00070286656 0.01020452)
(-0.00083056524 0.00070879365 0.01034247)
(-0.00083672919 0.00071041259 0.010455636)
(-0.00084727491 0.0007156885 0.010624382)
(-0.00086574517 0.00072729761 0.010894302)
(-0.00087419114 0.00073043452 0.011039644)
(-0.00088189237 0.00073433038 0.011174175)
(-0.00089299659 0.00073982578 0.011354712)
(-0.00090040542 0.00074561885 0.011483756)
(-0.00090632002 0.00074781276 0.011599907)
(-0.00092917525 0.00076650065 0.0119299)
(-0.00093113943 0.00076625287 0.011994836)
(-0.00094898715 0.00078065191 0.012263111)
(-0.00096136907 0.00078905632 0.01246461)
(-0.00096898284 0.00079198857 0.012607892)
(-0.00098193069 0.00079841616 0.012822841)
(-0.0009951856 0.00080478219 0.013043592)
(-0.0010090933 0.00081091437 0.013275373)
(-0.0010303015 0.00081989502 0.013609351)
(-0.0010450618 0.00082443651 0.013859842)
(-0.0010564998 0.00082438615 0.014072313)
(-0.0010717608 0.00082605138 0.014335629)
(-0.0010891903 0.00083041018 0.014628086)
(-0.0011114369 0.00083803712 0.014987656)
(-0.0011301791 0.00084215199 0.015303126)
(-0.0011487528 0.00084692854 0.015617087)
(-0.0011684664 0.00085168332 0.015949514)
(-0.0011866837 0.00085697114 0.016261367)
(-0.0012072047 0.00086098779 0.016611557)
(-0.001228145 0.00086553434 0.016972258)
(-0.0012495892 0.00087020791 0.017338382)
(-0.0012712636 0.00087390445 0.017711173)
(-0.001294203 0.00087674681 0.018105748)
(-0.0013171921 0.00087913223 0.018503739)
(-0.0013400726 0.00088114229 0.018902847)
(-0.0013644175 0.00088279433 0.019326278)
(-0.0013903479 0.00088363063 0.019777268)
(-0.0014181335 0.00088430337 0.020264339)
(-0.0014446733 0.00088472065 0.020729778)
(-0.0014718969 0.00088462451 0.0212086)
(-0.0014989951 0.00088374694 0.021688968)
(-0.0015263168 0.00088197312 0.022176243)
(-0.0015553631 0.00088050501 0.022692023)
(-0.0015842873 0.00087840034 0.02320943)
(-0.0016168328 0.00087543097 0.02379087)
(-0.0016480978 0.00087105814 0.024356035)
(-0.0016788883 0.00086674854 0.024913552)
(-0.0017098844 0.00086207644 0.025477727)
(-0.0017428697 0.00085617548 0.026076597)
(-0.0017759655 0.0008504949 0.026680487)
(-0.0018088531 0.00084348717 0.02728567)
(-0.0018433384 0.00083518407 0.02792614)
(-0.0018810797 0.00082653361 0.028620485)
(-0.0019156318 0.00081809957 0.029264353)
(-0.0019539212 0.00080832404 0.029977812)
(-0.0019925896 0.00079734472 0.030705958)
(-0.002038675 0.000785412 0.03157524)
(-0.0020785223 0.00077465721 0.032329762)
(-0.0021176562 0.00076432305 0.033075712)
(-0.002154871 0.00075383409 0.033794754)
(-0.00219642 0.00074191291 0.034595829)
(-0.0022370198 0.00072962132 0.0353832)
(-0.0022748847 0.0007184262 0.036122271)
(-0.0023120105 0.00070594675 0.03685321)
(-0.0023500821 0.00069444802 0.037601828)
(-0.0023872326 0.00068385177 0.038338181)
(-0.0024238648 0.00067326431 0.03906894)
(-0.0024590254 0.0006628606 0.039778339)
(-0.0027766816 0.00072457233 0.045089347)
(-0.0028837357 0.00073229075 0.046978384)
(-0.0028799175 0.0007103979 0.047073331)
(-0.0028756441 0.00068918897 0.04715828)
(-0.0028702659 0.00066902039 0.047222453)
(-0.0028654831 0.00064939506 0.047294066)
(-0.0028578412 0.00062756896 0.04734277)
(-0.002851491 0.00060955795 0.047383016)
(-0.0028439823 0.00059284684 0.047401258)
(-0.0028369314 0.00057683914 0.047424782)
(-0.0028292631 0.00056200803 0.047435379)
(-0.0028199706 0.00054847352 0.04741612)
(-0.0028101044 0.0005350122 0.047384902)
(-0.0027982038 0.00051902721 0.047344606)
(-0.0027872445 0.00050654428 0.047289982)
(-0.0027764682 0.00049416763 0.047235612)
(-0.0027651677 0.00048237793 0.047169885)
(-0.0027531553 0.00047112574 0.047089594)
(-0.0027406462 0.00046003144 0.046998495)
(-0.0027268582 0.00044694295 0.046901407)
(-0.002713283 0.00043544652 0.046797774)
(-0.0027004405 0.00042572236 0.046693105)
(-0.0026866571 0.00041638465 0.046569818)
(-0.0026728336 0.00040706385 0.046443638)
(-0.0026600505 0.0003975401 0.046333399)
(-0.0026428584 0.0003877897 0.04616703)
(-0.0026263836 0.00037937744 0.045993468)
(-0.0026119174 0.00037108562 0.045846179)
(-0.002597378 0.00036329459 0.04569538)
(-0.002582075 0.00035617982 0.045528904)
(-0.002563415 0.00034859178 0.045311411)
(-0.0025447942 0.00033915626 0.045101439)
(-0.0025284888 0.00033196668 0.044909697)
(-0.0025118239 0.00032480624 0.044709447)
(-0.0024950472 0.00031750332 0.044505146)
(-0.0024771048 0.00030924231 0.044285632)
(-0.0024562634 0.00029989279 0.044026996)
(-0.0024394245 0.00029261786 0.043814164)
(-0.0024226393 0.00028538781 0.043600323)
(-0.0024059996 0.00027825965 0.043387161)
(-0.0023870131 0.00027031459 0.043143228)
(-0.0023648793 0.00026285624 0.0428432)
(-0.0023476747 0.00025581821 0.042612701)
(-0.0023302747 0.000248878 0.042376774)
(-0.0023123863 0.00024222661 0.042130125)
(-0.0024473966 0.00023238941 0.044968481)
(-0.0035915536 0.00022341971 0.067924935)
(-0.0035218981 0.00021300668 0.06665933)
(-0.0032561023 0.00020588753 0.061448779)
(-0.0035090257 0.00019679468 0.066626606)
)
;
    }
    defaultFaces
    {
        type            empty;
    }
}


// ************************************************************************* //
