/*--------------------------------*- C++ -*----------------------------------*\
| =========                 |                                                 |
| \\      /  F ield         | OpenFOAM: The Open Source CFD Toolbox           |
|  \\    /   O peration     | Version:  2406                                  |
|   \\  /    A nd           | Website:  www.openfoam.com                      |
|    \\/     M anipulation  |                                                 |
\*---------------------------------------------------------------------------*/
FoamFile
{
    version     2.0;
    format      ascii;
    arch        "LSB;label=32;scalar=64";
    class       volScalarField;
    location    "0";
    object      nut;
}
// * * * * * * * * * * * * * * * * * * * * * * * * * * * * * * * * * * * * * //

dimensions      [0 2 -1 0 0 0 0];

internalField   nonuniform List<scalar> 
24384
(
1.3006408e-08
4.8999311e-08
1.5983732e-07
3.7696755e-07
6.9600847e-07
1.2962631e-06
1.985201e-06
3.0094935e-06
4.0987231e-06
5.2813153e-06
6.3833496e-06
7.1724376e-06
7.7527242e-06
8.0148476e-06
5.1110211e-07
2.4789843e-06
6.9719462e-06
1.3994652e-05
2.2430194e-05
3.4853072e-05
4.6088408e-05
5.9424547e-05
7.1041218e-05
8.1649658e-05
9.025507e-05
9.5790447e-05
9.9592711e-05
0.00010122596
3.4756785e-06
1.9853967e-05
4.6966855e-05
7.5699916e-05
0.00010112737
0.00013043274
0.00015264616
0.00017605331
0.00019475779
0.00021073669
0.00022296394
0.00023043014
0.0002353647
0.0002373956
9.1989462e-06
5.364285e-05
0.00011370139
0.00016453141
0.00020313968
0.00024389227
0.00027335251
0.00030364625
0.00032738685
0.00034712842
0.00036156561
0.00036986791
0.00037504559
0.00037701594
1.405112e-05
8.455561e-05
0.00017370086
0.00024670236
0.00030204517
0.00035977383
0.00040045082
0.00044095082
0.00047153264
0.00049570847
0.00051204586
0.00052042818
0.00052502797
0.00052646001
1.5496018e-05
0.00010428257
0.00022206697
0.0003212774
0.00039957041
0.00048323963
0.00054200394
0.00059882242
0.00063976016
0.00066989404
0.00068793807
0.00069536553
0.00069819754
0.00069840159
1.2977859e-05
0.00010848268
0.00025422221
0.00038187666
0.00048602665
0.00060098944
0.00068336906
0.00076276941
0.00081844489
0.00085697334
0.00087717596
0.00088292621
0.00088296639
0.00088133939
7.2765184e-06
9.6183581e-05
0.00026999389
0.00043130684
0.00056608548
0.00071921656
0.00083209905
0.00094288982
0.0010206535
0.0010727922
0.0010973774
0.0011013601
0.001097715
0.0010936406
1.9927432e-06
6.8717148e-05
0.00026162093
0.000460667
0.00062960329
0.00082564218
0.00097383839
0.0011229868
0.001229886
0.0013020045
0.0013349905
0.0013385293
0.0013313202
0.0013246867
2.7112109e-07
3.1517274e-05
0.00022289667
0.0004629854
0.00067014552
0.00091404789
0.0011021111
0.0012958525
0.0014384547
0.0015373997
0.0015842379
0.001590139
0.0015807107
0.0015720518
7.1167385e-08
4.3764699e-06
0.00014693228
0.00042507726
0.00067781667
0.0009784598
0.001213834
0.0014613233
0.0016483782
0.0017830374
0.001851338
0.001864254
0.001855465
0.0018461524
4.7855453e-08
5.1561701e-07
5.5671059e-05
0.00033041375
0.00063444269
0.0010007895
0.001290551
0.0016001324
0.0018395746
0.0020183024
0.002116119
0.0021421054
0.0021386424
0.0021312712
3.2291236e-08
2.1471522e-07
1.2455867e-05
0.00018203754
0.00052306502
0.0009647322
0.0013175943
0.001698658
0.0019989924
0.0022305496
0.0023665193
0.0024126301
0.0024205707
0.0024187682
2.3163315e-08
1.1686589e-07
1.2041084e-06
5.3082856e-05
0.00033498868
0.0008519898
0.0012793845
0.0017438343
0.0021150858
0.0024094077
0.0025932596
0.0026676454
0.0026943521
0.0027026923
1.7934421e-08
6.2623395e-08
3.171545e-07
2.6569913e-06
9.7224023e-05
0.00060408585
0.0011274945
0.0017047423
0.0021707245
0.002549625
0.0028010092
0.0029189614
0.0029777796
0.0030045492
1.4744334e-08
4.0069962e-08
1.4557174e-07
5.8876697e-07
7.5247274e-06
0.00026408504
0.00082949347
0.0015386764
0.0021196899
0.0026005501
0.0029359232
0.0031117696
0.0032164153
0.0032704995
1.2603574e-08
2.7197169e-08
7.2342983e-08
2.2038217e-07
6.3745571e-07
4.3013906e-05
0.00041111898
0.0012237702
0.0019455215
0.0025510132
0.0029902042
0.0032403921
0.0034063745
0.003497748
1.0858402e-08
1.866997e-08
3.6930713e-08
7.9809833e-08
1.7151659e-07
6.69127e-07
4.5812506e-05
0.00062575816
0.0015086464
0.0023074101
0.0029086007
0.0032771326
0.0035435258
0.0036968246
9.7083032e-09
1.3953851e-08
2.1918008e-08
3.6394051e-08
5.9578408e-08
1.1567854e-07
2.562363e-07
0.00015787148
0.0008879196
0.0018753563
0.0026692804
0.0031786282
0.0035654551
0.0037935476
8.5893941e-09
1.0045182e-08
1.209184e-08
1.4681126e-08
1.7414584e-08
2.1268994e-08
2.614852e-08
1.348518e-06
0.00018204693
0.0010724988
0.0021341133
0.0028668426
0.0034424829
0.0037876087
7.9341212e-09
8.1281207e-09
8.3869519e-09
8.658025e-09
8.8727788e-09
9.0965063e-09
9.2798346e-09
9.5219119e-09
5.4167813e-06
0.0003011621
0.0013170988
0.0023125519
0.0031307652
0.0036246098
7.8405435e-09
7.8523717e-09
7.8657441e-09
7.8784251e-09
7.8909765e-09
7.9085408e-09
7.9257136e-09
7.9502841e-09
7.9963585e-09
1.6083504e-05
0.00037609741
0.0013952526
0.0025338764
0.0032417724
7.8394361e-09
7.8477099e-09
7.858424e-09
7.8711647e-09
7.8847132e-09
7.9045349e-09
7.9239438e-09
7.9510057e-09
7.9803585e-09
1.2778315e-08
2.5128437e-05
0.00042776222
0.0015971608
0.0025726299
7.8390963e-09
7.846768e-09
7.8567373e-09
7.8685691e-09
7.881182e-09
7.8995353e-09
7.917476e-09
7.9423727e-09
7.9694738e-09
8.0032418e-09
8.2236677e-09
1.6843678e-05
0.00050113167
0.0015389508
7.8387525e-09
7.8458435e-09
7.8549965e-09
7.8660587e-09
7.8777395e-09
7.8946747e-09
7.9112156e-09
7.9341928e-09
7.9592014e-09
7.9903711e-09
8.0284307e-09
6.185762e-08
3.4206912e-05
0.00042758969
7.8384097e-09
7.8448985e-09
7.8532632e-09
7.8634079e-09
7.8741e-09
7.8896064e-09
7.9047571e-09
7.9257945e-09
7.9487053e-09
7.9772132e-09
8.0121743e-09
8.0513209e-09
8.4931975e-09
3.3976273e-06
7.8380738e-09
7.8439631e-09
7.8515655e-09
7.8607823e-09
7.8704977e-09
7.8845996e-09
7.898376e-09
7.9175029e-09
7.9383345e-09
7.9642496e-09
7.9960412e-09
8.0314076e-09
8.0791658e-09
8.5147796e-09
7.8377392e-09
7.8430334e-09
7.8498718e-09
7.8581652e-09
7.8669122e-09
7.8796033e-09
7.8920075e-09
7.909237e-09
7.9279894e-09
7.9513144e-09
7.9798443e-09
8.0119229e-09
8.0556126e-09
8.0985272e-09
7.8374244e-09
7.8421565e-09
7.8482744e-09
7.8556941e-09
7.8635215e-09
7.8748835e-09
7.8859893e-09
7.9014141e-09
7.9182041e-09
7.9390792e-09
7.9646161e-09
7.9931978e-09
8.0322008e-09
8.071735e-09
7.8371095e-09
7.8412793e-09
7.8466741e-09
7.8532182e-09
7.8601238e-09
7.8701499e-09
7.879951e-09
7.893566e-09
7.9083844e-09
7.9268013e-09
7.9493138e-09
7.9745108e-09
8.0088143e-09
8.0435379e-09
7.8368294e-09
7.8404996e-09
7.8452499e-09
7.8510141e-09
7.8570979e-09
7.8659325e-09
7.8745697e-09
7.8865689e-09
7.8996284e-09
7.9158547e-09
7.9356798e-09
7.9578467e-09
7.9880061e-09
8.0184982e-09
7.8365437e-09
7.8397041e-09
7.843796e-09
7.8487632e-09
7.8540068e-09
7.8616223e-09
7.8690681e-09
7.8794138e-09
7.8906731e-09
7.9046591e-09
7.9217381e-09
7.9408199e-09
7.9667552e-09
7.9929459e-09
7.836307e-09
7.8390457e-09
7.8425919e-09
7.8468983e-09
7.8514449e-09
7.8580488e-09
7.8645056e-09
7.8734782e-09
7.8832432e-09
7.8953704e-09
7.910174e-09
7.9267028e-09
7.9491494e-09
7.9717935e-09
7.8360585e-09
7.8383543e-09
7.8413273e-09
7.8449391e-09
7.8487529e-09
7.8542925e-09
7.8597085e-09
7.8672359e-09
7.8754281e-09
7.8856002e-09
7.8980126e-09
7.9118623e-09
7.930654e-09
7.9495894e-09
7.8358688e-09
7.8378266e-09
7.8403621e-09
7.8434432e-09
7.846697e-09
7.8514231e-09
7.8560435e-09
7.8624654e-09
7.8694548e-09
7.8781324e-09
7.8887186e-09
7.900525e-09
7.9165332e-09
7.9326496e-09
7.8356624e-09
7.8372527e-09
7.8393123e-09
7.8418158e-09
7.8444601e-09
7.8483004e-09
7.8520544e-09
7.8572723e-09
7.8629514e-09
7.8700016e-09
7.8786007e-09
7.8881863e-09
7.9011738e-09
7.9142356e-09
7.8355145e-09
7.8368416e-09
7.8385602e-09
7.8406497e-09
7.842857e-09
7.8460623e-09
7.8491951e-09
7.8535494e-09
7.8582886e-09
7.8641717e-09
7.8713467e-09
7.8793424e-09
7.8901703e-09
7.9010511e-09
7.8353584e-09
7.8364073e-09
7.8377659e-09
7.839418e-09
7.8411634e-09
7.8436978e-09
7.8461742e-09
7.8496157e-09
7.8533613e-09
7.8580108e-09
7.8636813e-09
7.8699991e-09
7.87855e-09
7.887134e-09
7.8352448e-09
7.8360917e-09
7.8371886e-09
7.8385227e-09
7.8399324e-09
7.841979e-09
7.8439783e-09
7.8467563e-09
7.8497795e-09
7.8535321e-09
7.858109e-09
7.863208e-09
7.8701071e-09
7.8770273e-09
7.8351351e-09
7.8357866e-09
7.8366305e-09
7.837657e-09
7.8387417e-09
7.8403166e-09
7.8418547e-09
7.843991e-09
7.8463156e-09
7.8492008e-09
7.8527201e-09
7.8566415e-09
7.8619455e-09
7.8672607e-09
7.8350518e-09
7.835555e-09
7.8362067e-09
7.8369996e-09
7.8378376e-09
7.8390543e-09
7.8402422e-09
7.8418917e-09
7.843686e-09
7.8459126e-09
7.8486292e-09
7.8516571e-09
7.8557516e-09
7.8598504e-09
7.8349794e-09
7.8353536e-09
7.8358384e-09
7.8364283e-09
7.8370519e-09
7.8379571e-09
7.8388408e-09
7.8400673e-09
7.8414011e-09
7.8430557e-09
7.8450749e-09
7.8473266e-09
7.8503714e-09
7.8534177e-09
7.8349221e-09
7.8351943e-09
7.8355469e-09
7.835976e-09
7.8364296e-09
7.8370882e-09
7.8377311e-09
7.8386231e-09
7.8395924e-09
7.8407944e-09
7.8422617e-09
7.8438995e-09
7.8461148e-09
7.8483356e-09
7.8348776e-09
7.8350707e-09
7.8353209e-09
7.8356253e-09
7.8359471e-09
7.8364144e-09
7.8368706e-09
7.8375033e-09
7.8381904e-09
7.8390417e-09
7.8400812e-09
7.8412435e-09
7.842816e-09
7.8443931e-09
7.834841e-09
7.8349689e-09
7.8351346e-09
7.8353363e-09
7.8355495e-09
7.835859e-09
7.8361613e-09
7.8365804e-09
7.837035e-09
7.8375976e-09
7.8382849e-09
7.8390545e-09
7.8400958e-09
7.8411402e-09
7.8348156e-09
7.8348983e-09
7.8350054e-09
7.8351358e-09
7.8352737e-09
7.8354737e-09
7.8356689e-09
7.8359398e-09
7.8362333e-09
7.8365952e-09
7.8370377e-09
7.8375348e-09
7.8382072e-09
7.8388821e-09
7.8347932e-09
7.834836e-09
7.8348914e-09
7.8349589e-09
7.8350302e-09
7.8351338e-09
7.8352348e-09
7.8353749e-09
7.8355263e-09
7.8357112e-09
7.8359353e-09
7.8361919e-09
7.8365396e-09
7.8368886e-09
7.8347778e-09
7.8347933e-09
7.8348139e-09
7.834839e-09
7.8348654e-09
7.8349035e-09
7.8349408e-09
7.8349925e-09
7.8350482e-09
7.8351155e-09
7.8351943e-09
7.8352897e-09
7.8354189e-09
7.8355486e-09
8.1291857e-06
8.1412416e-06
8.1236101e-06
8.0944959e-06
8.0540984e-06
8.0209048e-06
7.9843105e-06
7.9569819e-06
7.9290427e-06
7.9089472e-06
7.8893184e-06
7.8756966e-06
7.8630087e-06
7.8544931e-06
7.8470898e-06
7.8425558e-06
7.8391148e-06
7.8374366e-06
7.8367294e-06
7.8369988e-06
7.8380983e-06
7.8396071e-06
7.8417533e-06
7.8438665e-06
7.8464167e-06
7.8486008e-06
7.8510486e-06
7.8529626e-06
7.8549331e-06
7.8562749e-06
7.8574747e-06
7.8580515e-06
7.8582669e-06
7.8579948e-06
7.8570767e-06
7.8557558e-06
7.8534708e-06
7.8508011e-06
7.8469428e-06
7.8426708e-06
7.8369611e-06
7.8307372e-06
7.8229511e-06
7.8144598e-06
7.8043818e-06
7.7932231e-06
7.7805775e-06
7.7664254e-06
7.7510047e-06
7.7334171e-06
7.7149763e-06
7.6935359e-06
7.6718473e-06
7.6461072e-06
7.620949e-06
7.5904435e-06
7.5615955e-06
7.5258369e-06
7.4930855e-06
7.4515657e-06
7.414703e-06
7.3669005e-06
7.3254585e-06
7.2713633e-06
7.2244098e-06
7.1644249e-06
7.1111304e-06
7.0449857e-06
6.984857e-06
6.912288e-06
6.8448083e-06
6.7655646e-06
6.6902229e-06
6.6040637e-06
6.5203392e-06
6.4270399e-06
6.3344261e-06
6.2337886e-06
6.1317847e-06
6.0236299e-06
5.9117648e-06
5.7959525e-06
5.6737867e-06
5.5502163e-06
5.4173607e-06
5.2859855e-06
5.1421221e-06
5.0029595e-06
4.8478611e-06
4.7010112e-06
4.5345759e-06
4.3802397e-06
4.2025074e-06
4.0410118e-06
3.8522391e-06
3.6840714e-06
3.4847554e-06
3.3106084e-06
3.1015989e-06
2.9224328e-06
2.7050237e-06
2.5221687e-06
2.2982549e-06
2.1135437e-06
1.8858491e-06
1.7018319e-06
0.00010190204
0.00010195511
0.00010181525
0.00010161462
0.00010134654
0.00010113043
0.00010089574
0.00010072323
0.00010054999
0.0001004283
0.00010031265
0.00010023553
0.00010016752
0.00010012551
0.00010009341
0.00010007841
0.00010007304
0.00010007731
0.00010009016
0.00010010726
0.00010013186
0.00010015686
0.00010018807
0.00010021658
0.00010025001
0.00010027846
0.0001003107
0.00010033668
0.00010036523
0.00010038671
0.00010040961
0.00010042536
0.00010044109
0.0001004506
0.00010045843
0.00010046137
0.00010046017
0.00010045459
0.00010044294
0.00010042713
0.00010040335
0.00010037512
0.00010033767
0.00010029482
0.00010024222
0.00010018227
0.00010011278
0.00010003347
9.9945703e-05
9.9844153e-05
9.9736434e-05
9.9609801e-05
9.9480535e-05
9.9325749e-05
9.9173327e-05
9.8987134e-05
9.8809919e-05
9.8588831e-05
9.8385161e-05
9.8125455e-05
9.7893621e-05
9.7591334e-05
9.7327881e-05
9.6982151e-05
9.6680453e-05
9.6292988e-05
9.5946852e-05
9.5514929e-05
9.5120015e-05
9.4640708e-05
9.419226e-05
9.366245e-05
9.3155353e-05
9.2571667e-05
9.2000315e-05
9.1359084e-05
9.0717417e-05
9.0014683e-05
8.9296032e-05
8.8527402e-05
8.7724459e-05
8.6885122e-05
8.598986e-05
8.507445e-05
8.4077926e-05
8.3080451e-05
8.197277e-05
8.0886466e-05
7.9656528e-05
7.8473727e-05
7.7109079e-05
7.5820989e-05
7.4307306e-05
7.2903758e-05
7.1224866e-05
6.969394e-05
6.7830831e-05
6.6158465e-05
6.4089057e-05
6.225836e-05
5.9956523e-05
5.7947237e-05
5.5381496e-05
5.3168556e-05
5.0301953e-05
4.7863151e-05
0.00023816189
0.00023817092
0.00023790856
0.00023759431
0.00023719839
0.00023688884
0.00023656014
0.00023632397
0.00023609269
0.00023593544
0.00023579165
0.00023570139
0.00023562873
0.00023559085
0.00023557102
0.0002355727
0.00023559179
0.00023562144
0.00023566663
0.00023571449
0.00023577608
0.00023583463
0.00023590506
0.00023596783
0.00023604067
0.00023610245
0.00023617272
0.00023622987
0.00023629395
0.00023634355
0.00023639867
0.00023643892
0.00023648273
0.00023651316
0.00023654489
0.00023656634
0.00023658509
0.00023659485
0.0002365986
0.00023659423
0.00023658065
0.00023655908
0.00023652598
0.00023648415
0.0002364295
0.00023636401
0.00023628546
0.00023619313
0.00023608878
0.00023596573
0.00023583331
0.00023567559
0.00023551293
0.00023531633
0.00023512126
0.00023488131
0.00023465163
0.0002343636
0.00023409709
0.0002337559
0.00023345028
0.00023305055
0.00023270122
0.00023224168
0.00023183978
0.00023132264
0.00023085984
0.00023028147
0.0002297519
0.00022910838
0.00022850558
0.0002277927
0.00022710969
0.00022632285
0.00022555197
0.00022468613
0.000223819
0.00022286867
0.00022189606
0.00022085506
0.0002197667
0.00021862813
0.00021741263
0.00021616868
0.00021481312
0.00021345488
0.00021194474
0.0002104619
0.00020878047
0.00020716099
0.00020528905
0.0002035187
0.00020143342
0.0001994951
0.00019716963
0.00019504243
0.00019244388
0.00019010186
0.00018718961
0.0001845996
0.00018132231
0.00017844146
0.00017473158
0.00017150114
0.00016726959
0.00016362618
0.00037761519
0.00037751455
0.00037708839
0.00037665649
0.00037614866
0.00037576681
0.00037537303
0.00037509869
0.00037483952
0.0003746717
0.0003745278
0.00037444727
0.00037439519
0.0003743822
0.00037439733
0.00037443436
0.00037449823
0.00037457018
0.00037466616
0.00037476016
0.00037487554
0.00037498169
0.00037510682
0.00037521681
0.00037534349
0.00037545064
0.00037557257
0.00037567214
0.00037578478
0.00037587307
0.00037597293
0.00037604767
0.00037613163
0.00037619262
0.00037626009
0.00037631012
0.00037636093
0.00037639667
0.00037642824
0.00037644666
0.00037645616
0.00037645341
0.00037643812
0.00037641041
0.00037636782
0.00037631108
0.00037623844
0.00037614869
0.00037604374
0.00037591636
0.00037577639
0.0003756066
0.00037542905
0.00037521176
0.00037499409
0.00037472398
0.00037446364
0.00037413512
0.00037382961
0.00037343672
0.00037308347
0.00037261994
0.00037221373
0.00037167811
0.00037120874
0.00037060382
0.00037006174
0.0003693836
0.00036876218
0.00036800666
0.00036729869
0.00036646131
0.00036565906
0.00036473503
0.0003638301
0.00036281422
0.00036179754
0.00036068417
0.00035954585
0.00035832877
0.00035705797
0.00035573026
0.00035431507
0.00035286904
0.00035129617
0.00034972309
0.00034797782
0.00034626774
0.0003443334
0.00034247486
0.00034033255
0.00033831215
0.00033593984
0.00033374165
0.0003311138
0.00032871864
0.0003258046
0.00032318896
0.00031995139
0.00031708548
0.00031347803
0.00031032397
0.00030628619
0.00030279143
0.00029824494
0.00029435793
0.00052661579
0.00052633887
0.00052570817
0.00052515872
0.00052456329
0.00052413881
0.00052372013
0.00052344321
0.00052319884
0.00052305653
0.00052295386
0.00052291768
0.00052292523
0.00052297003
0.00052305678
0.00052316006
0.00052330297
0.0005234462
0.00052362497
0.00052379216
0.0005239912
0.0005241701
0.00052437777
0.00052455825
0.00052476474
0.00052493874
0.00052513653
0.00052529827
0.00052548207
0.00052562715
0.00052579285
0.00052591857
0.00052606221
0.00052616895
0.00052629047
0.00052638422
0.00052648476
0.00052656157
0.00052663804
0.00052669425
0.00052674336
0.00052677438
0.00052679283
0.00052679411
0.000526779
0.00052674583
0.00052669405
0.0005266217
0.00052653065
0.00052641378
0.0005262804
0.0005261134
0.00052593473
0.00052571167
0.00052548483
0.00052519958
0.00052492176
0.00052456789
0.00052423633
0.00052380706
0.00052341898
0.00052290719
0.00052245683
0.00052186084
0.00052133691
0.00052065989
0.00052005177
0.00051928956
0.00051858993
0.00051773818
0.00051693912
0.00051599318
0.00051508626
0.00051404117
0.00051301729
0.00051186768
0.00051071712
0.00050945726
0.00050816948
0.00050679307
0.00050535662
0.00050385667
0.00050225905
0.00050062789
0.00049885534
0.00049708429
0.00049512168
0.00049320093
0.00049103132
0.00048894964
0.00048655398
0.00048429831
0.00048165466
0.00047920958
0.00047629266
0.00047363962
0.0004704195
0.00046753599
0.00046397629
0.00046083362
0.00045688951
0.00045345141
0.0004490641
0.00044527891
0.00044037198
0.00043619086
0.00069774584
0.00069722968
0.00069638339
0.00069575618
0.00069515329
0.00069476368
0.00069441581
0.00069421621
0.00069407838
0.00069403642
0.00069405835
0.00069413456
0.00069427668
0.00069444096
0.00069466684
0.00069489224
0.00069517506
0.00069544029
0.00069575711
0.00069604361
0.00069637663
0.00069667022
0.00069700639
0.00069729551
0.00069762401
0.00069789956
0.00069821211
0.00069846758
0.0006987585
0.00069898904
0.00069925398
0.00069945666
0.00069969075
0.00069986719
0.00070007155
0.00070023284
0.00070041095
0.00070055261
0.00070070096
0.00070081878
0.00070093375
0.00070102238
0.00070110009
0.00070115429
0.00070119158
0.00070120612
0.00070119967
0.00070116916
0.00070111616
0.00070103467
0.00070093174
0.00070079291
0.00070063685
0.00070043401
0.00070022167
0.00069994798
0.00069967639
0.00069932475
0.00069899102
0.000698554
0.00069815521
0.00069762499
0.00069715516
0.00069652965
0.00069597687
0.00069525938
0.00069461232
0.00069379861
0.00069304943
0.0006921351
0.00069127537
0.00069025576
0.00068927654
0.00068814664
0.00068703835
0.00068579281
0.00068454523
0.00068317833
0.00068178048
0.00068028598
0.000678726
0.00067709695
0.00067536188
0.00067359062
0.00067166634
0.00066974431
0.00066761536
0.00066553282
0.00066318192
0.00066092775
0.00065833551
0.00065589661
0.00065304076
0.00065040168
0.00064725632
0.00064439819
0.00064093271
0.00063783247
0.00063400902
0.0006306366
0.00062640798
0.00062272466
0.00061802704
0.00061397526
0.00060872277
0.00060424432
0.00087960536
0.00087885665
0.00087787396
0.00087727827
0.00087682361
0.00087660282
0.0008764818
0.00087648432
0.00087659142
0.00087675931
0.00087702483
0.00087730811
0.00087768658
0.00087805222
0.00087850494
0.00087892352
0.00087942222
0.00087987146
0.00088039275
0.00088085304
0.00088137863
0.00088183501
0.00088235175
0.0008827921
0.00088328928
0.00088370437
0.00088417387
0.00088455704
0.00088499357
0.00088534009
0.00088573964
0.00088604675
0.0008864037
0.00088667506
0.00088699256
0.00088724646
0.00088753145
0.00088776308
0.00088801192
0.00088821667
0.00088842553
0.00088859741
0.00088876199
0.00088889518
0.00088901226
0.00088910126
0.00088916754
0.00088920654
0.00088921914
0.00088920177
0.00088915721
0.00088907657
0.0008889715
0.00088882038
0.00088865156
0.00088842261
0.00088818705
0.00088787277
0.00088756761
0.00088716013
0.00088678248
0.00088627357
0.00088581754
0.00088520454
0.00088465826
0.00088394421
0.00088329619
0.00088247693
0.00088171899
0.00088079026
0.00087991374
0.00087887098
0.00087786665
0.00087670501
0.00087556303
0.00087427727
0.00087298717
0.0008715717
0.00087012227
0.00086857098
0.0008669501
0.00086525612
0.00086345053
0.00086160621
0.00085960149
0.00085759832
0.00085537865
0.00085320677
0.00085075444
0.00084840255
0.0008456974
0.00084315185
0.00084017062
0.00083741514
0.00083413014
0.00083114419
0.00082752226
0.00082428029
0.000820279
0.00081674645
0.00081231146
0.00080844221
0.00080349662
0.0007992194
0.00079365471
0.00078888759
0.0010906139
0.0010897228
0.0010888001
0.0010884502
0.0010884287
0.0010886159
0.0010889976
0.0010894221
0.0010900176
0.0010905884
0.0010913075
0.0010919655
0.001092761
0.0010934739
0.00109431
0.0010950491
0.0010959001
0.0010966451
0.0010974907
0.0010982234
0.0010990477
0.0010997541
0.0011005459
0.0011012148
0.0011019654
0.001102589
0.0011032919
0.0011038643
0.0011045158
0.0011050333
0.0011056308
0.0011060914
0.0011066289
0.0011070397
0.0011075237
0.001107914
0.0011083568
0.0011087217
0.0011091199
0.0011094544
0.0011098042
0.0011101019
0.0011103987
0.0011106533
0.001110894
0.0011111
0.0011112818
0.0011114329
0.0011115531
0.0011116429
0.001111698
0.0011117191
0.0011117057
0.0011116507
0.0011115657
0.0011114267
0.0011112673
0.0011110368
0.0011108002
0.00111047
0.0011101536
0.0011097152
0.0011093136
0.0011087635
0.0011082655
0.0011076061
0.0011070005
0.0011062276
0.0011055062
0.0011046159
0.0011037698
0.0011027577
0.0011017776
0.0011006389
0.0010995148
0.0010982446
0.0010969657
0.0010955584
0.0010941133
0.0010925629
0.001090939
0.0010892385
0.0010874222
0.0010855636
0.0010835397
0.0010815141
0.001079266
0.001077063
0.0010745716
0.0010721787
0.0010694219
0.0010668237
0.0010637755
0.0010609532
0.0010575815
0.0010545103
0.0010507756
0.0010474236
0.001043273
0.0010395957
0.0010349592
0.0010308946
0.0010256686
0.0010211187
0.0010151508
0.0010099873
0.0013205293
0.0013197726
0.0013193103
0.0013195619
0.0013204064
0.0013213493
0.0013226268
0.0013237815
0.001325203
0.0013264413
0.0013279
0.0013291592
0.0013306142
0.0013318682
0.0013332947
0.0013345214
0.0013359025
0.0013370876
0.0013384116
0.0013395423
0.0013407999
0.0013418662
0.0013430514
0.0013440454
0.0013451543
0.0013460711
0.0013471011
0.0013479376
0.0013488884
0.001349643
0.0013505149
0.0013511877
0.0013519743
0.0013525776
0.0013532911
0.0013538696
0.0013545301
0.001355079
0.0013556837
0.0013561981
0.0013567435
0.0013572164
0.0013576979
0.0013581227
0.0013585378
0.0013589093
0.0013592558
0.001359568
0.0013598436
0.0013600898
0.0013602913
0.001360464
0.0013605884
0.0013606797
0.001360724
0.0013607262
0.0013606879
0.0013605933
0.0013604701
0.0013602705
0.0013600601
0.001359747
0.0013594447
0.0013590133
0.0013586095
0.0013580605
0.0013575448
0.0013568744
0.0013562385
0.001355443
0.0013546777
0.0013537528
0.0013528486
0.0013517898
0.0013507363
0.0013495384
0.0013483245
0.0013469817
0.0013455954
0.0013441013
0.0013425293
0.0013408763
0.0013391033
0.0013372825
0.0013352921
0.0013332932
0.0013310665
0.0013288772
0.0013263923
0.0013239976
0.0013212281
0.0013186085
0.0013155229
0.0013126543
0.0013092114
0.0013060609
0.0013022095
0.0012987336
0.0012944019
0.0012905387
0.0012856299
0.0012812905
0.0012756571
0.0012707017
0.0012641226
0.00125835
0.0015673952
0.0015672768
0.001567912
0.0015692819
0.0015715933
0.0015737645
0.0015764659
0.0015787624
0.0015814586
0.0015837161
0.0015862934
0.0015884537
0.0015908888
0.0015929401
0.00159523
0.0015971645
0.0015993096
0.0016011249
0.0016031296
0.001604823
0.0016066899
0.0016082597
0.0016099927
0.0016114371
0.0016130404
0.0016143604
0.0016158386
0.0016170357
0.001618394
0.0016194708
0.0016207145
0.0016216743
0.0016227976
0.0016236604
0.0016246832
0.001625515
0.0016264683
0.0016272646
0.0016281471
0.0016289033
0.0016297118
0.0016304204
0.0016311508
0.0016318052
0.0016324559
0.0016330515
0.0016336216
0.0016341528
0.0016346404
0.0016351004
0.0016355032
0.0016358846
0.0016361997
0.0016364945
0.0016367194
0.0016369199
0.0016370527
0.0016371512
0.0016371902
0.0016371788
0.0016371219
0.0016369917
0.0016368355
0.0016365802
0.0016363173
0.001635935
0.0016355562
0.0016350433
0.0016345397
0.0016338927
0.0016332551
0.0016324694
0.0016316875
0.0016307585
0.0016298213
0.0016287431
0.0016276384
0.0016264047
0.0016251191
0.0016237223
0.0016222406
0.0016206716
0.0016189763
0.0016172237
0.0016152951
0.0016133465
0.0016111616
0.0016090005
0.0016065322
0.0016041392
0.0016013536
0.0015987023
0.0015955579
0.0015926151
0.0015890567
0.0015857767
0.0015817341
0.0015780553
0.0015734283
0.0015692632
0.0015639153
0.0015591363
0.0015528583
0.0015472687
0.0015397466
0.0015330477
0.0018423172
0.0018437297
0.0018465254
0.0018498378
0.0018545559
0.0018586863
0.0018636253
0.0018676974
0.0018723595
0.0018761784
0.0018804598
0.0018839854
0.0018878979
0.001891145
0.0018947235
0.0018977092
0.0019009843
0.001903727
0.0019067291
0.0019092439
0.0019119967
0.0019142955
0.0019168192
0.0019189114
0.0019212235
0.0019231199
0.0019252367
0.0019269465
0.0019288826
0.0019304153
0.0019321838
0.0019335483
0.001935145
0.0019363723
0.0019378289
0.0019390154
0.0019403785
0.0019415205
0.0019427907
0.0019438842
0.0019450596
0.0019460966
0.0019471735
0.0019481476
0.0019491262
0.0019500339
0.0019509152
0.0019517513
0.0019525344
0.0019532925
0.0019539757
0.0019546483
0.0019552297
0.0019558089
0.0019562865
0.0019567646
0.0019571373
0.0019575068
0.0019577736
0.0019580265
0.0019581857
0.0019583133
0.0019583631
0.0019583559
0.001958292
0.0019581449
0.0019579591
0.0019576685
0.0019573516
0.0019569134
0.001956455
0.0019558645
0.0019552533
0.0019545046
0.0019537279
0.0019528141
0.0019518576
0.0019507706
0.0019496184
0.0019483485
0.0019469819
0.0019455168
0.0019439136
0.0019422381
0.0019403734
0.0019384703
0.0019363139
0.0019341608
0.0019316768
0.0019292461
0.0019263882
0.0019236429
0.0019203548
0.0019172479
0.0019134524
0.0019099194
0.0019055189
0.0019014722
0.0018963255
0.0018916425
0.0018855591
0.0018800599
0.0018727491
0.0018661646
0.0018571943
0.0018491038
0.002130473
0.0021347008
0.0021410885
0.0021473871
0.0021556615
0.0021626271
0.0021707693
0.0021773638
0.0021848041
0.0021908206
0.0021974924
0.0022029274
0.0022088996
0.0022138088
0.0022191731
0.0022236118
0.0022284442
0.0022324614
0.0022368307
0.002240468
0.0022444285
0.0022477186
0.0022513147
0.0022542834
0.0022575526
0.0022602251
0.0022632003
0.0022655976
0.0022683072
0.0022704488
0.0022729174
0.0022748205
0.0022770466
0.0022787576
0.002280789
0.0022824449
0.0022843495
0.0022859479
0.0022877291
0.0022892665
0.0022909241
0.0022923922
0.0022939235
0.0022953166
0.0022967244
0.0022980401
0.0022993276
0.0023005617
0.0023017297
0.0023028759
0.0023039239
0.0023049748
0.0023059016
0.0023068492
0.0023076539
0.0023084907
0.002309173
0.0023098917
0.0023104514
0.0023110437
0.0023114798
0.0023119367
0.0023122491
0.0023125573
0.0023127451
0.0023128947
0.0023129515
0.0023129385
0.0023128535
0.0023126733
0.0023124345
0.0023120809
0.0023116748
0.0023111404
0.0023105518
0.0023098275
0.0023090384
0.0023081133
0.0023071036
0.0023059643
0.00230471
0.0023033395
0.0023018114
0.0023001888
0.0022983539
0.0022964552
0.0022942729
0.0022920668
0.0022894889
0.002286937
0.0022839002
0.0022809516
0.0022773795
0.0022739685
0.0022697556
0.0022657949
0.002260809
0.0022561779
0.0022502284
0.002244764
0.0022375959
0.0022310565
0.0022222868
0.0022143251
0.0022033909
0.0021934537
0.0024240195
0.0024327052
0.0024444478
0.0024549661
0.0024681253
0.0024789231
0.0024913593
0.0025013161
0.0025124463
0.0025213743
0.0025312068
0.002539162
0.0025478488
0.0025549448
0.0025626554
0.0025690001
0.0025758722
0.0025815562
0.0025877105
0.0025928111
0.0025983435
0.0026029217
0.0026079093
0.0026120137
0.0026165209
0.0026201959
0.0026242783
0.0026275612
0.0026312656
0.0026341893
0.0026375556
0.0026401486
0.0026431798
0.0026455088
0.0026482736
0.0026505278
0.0026531216
0.0026553001
0.0026577302
0.0026598305
0.0026620985
0.0026641118
0.002666217
0.0026681383
0.0026700866
0.0026719153
0.0026737132
0.0026754461
0.0026770962
0.0026787273
0.0026802304
0.0026817522
0.0026831083
0.0026845128
0.0026857222
0.0026870018
0.0026880654
0.0026892127
0.0026901312
0.0026911379
0.0026919108
0.0026927666
0.0026933958
0.0026940829
0.0026945716
0.002695074
0.0026954172
0.0026957302
0.0026959151
0.0026960326
0.0026960448
0.0026959589
0.0026957815
0.0026954823
0.0026950959
0.0026945712
0.0026939532
0.0026931882
0.0026923126
0.0026912887
0.0026901239
0.002688818
0.0026873256
0.0026857093
0.0026838461
0.0026818868
0.0026795985
0.0026772541
0.0026744775
0.002671696
0.0026683466
0.0026650612
0.0026610391
0.0026571619
0.0026523288
0.0026477479
0.0026419322
0.0026364891
0.0026294468
0.0026229376
0.0026143434
0.0026064594
0.0025958377
0.0025861558
0.0025728081
0.002560644
0.002717749
0.0027328988
0.0027520705
0.0027682207
0.0027877604
0.0028034978
0.0028214298
0.0028356695
0.0028514874
0.0028641068
0.0028779412
0.002889084
0.0029012012
0.002911058
0.0029217282
0.0029304751
0.0029399163
0.0029476976
0.0029560961
0.0029630347
0.0029705397
0.0029767328
0.0029834637
0.0029889894
0.0029950446
0.002999972
0.0030054362
0.0030098232
0.0030147665
0.0030186634
0.0030231459
0.0030265957
0.0030306259
0.0030337208
0.003037394
0.0030403885
0.0030438342
0.003046729
0.0030499596
0.0030527533
0.0030557725
0.0030584557
0.0030612653
0.0030638343
0.0030664446
0.0030689009
0.003071322
0.0030736633
0.0030759002
0.0030781206
0.0030801758
0.0030822679
0.0030841428
0.0030860982
0.0030877945
0.0030896056
0.0030911257
0.003092785
0.0030941306
0.0030956289
0.0030968
0.003098126
0.0030991269
0.0031002563
0.0031010948
0.0031020049
0.0031026772
0.003103362
0.0031038526
0.0031043044
0.0031045954
0.0031048036
0.0031048738
0.0031048255
0.0031046506
0.0031043293
0.0031038803
0.0031032665
0.0031025099
0.0031015789
0.0031004738
0.0030991948
0.0030976914
0.0030960276
0.0030940708
0.0030919793
0.0030894987
0.0030869256
0.0030838408
0.0030807181
0.0030769209
0.0030731659
0.0030685304
0.0030640295
0.0030583827
0.0030530009
0.0030461286
0.0030396657
0.0030312718
0.0030234863
0.0030131706
0.0030036846
0.0029908883