/*--------------------------------*- C++ -*----------------------------------*\
| =========                 |                                                 |
| \\      /  F ield         | OpenFOAM: The Open Source CFD Toolbox           |
|  \\    /   O peration     | Version:  2406                                  |
|   \\  /    A nd           | Website:  www.openfoam.com                      |
|    \\/     M anipulation  |                                                 |
\*---------------------------------------------------------------------------*/
FoamFile
{
    version     2.0;
    format      ascii;
    arch        "LSB;label=32;scalar=64";
    class       volScalarField;
    location    "0";
    object      nuTilda;
}
// * * * * * * * * * * * * * * * * * * * * * * * * * * * * * * * * * * * * * //

dimensions      [0 2 -1 0 0 0 0];

internalField   nonuniform List<scalar> 
24384
(
8.2993711e-06
1.143754e-05
1.5631199e-05
1.9637435e-05
2.3084676e-05
2.720908e-05
3.0512382e-05
3.4199994e-05
3.7323349e-05
4.0164446e-05
4.2498144e-05
4.4026719e-05
4.5093071e-05
4.5560033e-05
2.5486338e-05
3.9061675e-05
5.2587564e-05
6.5137799e-05
7.6102581e-05
8.9191022e-05
9.9563504e-05
0.00011097147
0.00012046855
0.0001289335
0.00013572257
0.00014006749
0.00014304686
0.00014432583
4.131174e-05
7.3737256e-05
0.00010122974
0.0001246251
0.00014426185
0.00016698373
0.0001846089
0.00020369274
0.00021933125
0.0002329688
0.00024355888
0.00025009134
0.00025443335
0.0002562258
5.2672118e-05
0.00010653082
0.00015391867
0.00019402429
0.00022624759
0.00026185368
0.00028843899
0.00031635321
0.00033855394
0.0003571998
0.00037092054
0.0003788411
0.00038378997
0.00038567472
5.7827433e-05
0.00013120581
0.00020162824
0.00026424174
0.0003147456
0.00036914789
0.00040817434
0.00044740715
0.00047721532
0.00050086995
0.00051689026
0.00052511975
0.00052963756
0.00053104394
5.6577337e-05
0.00014664353
0.00024286849
0.00033273287
0.00040729979
0.00048863738
0.00054633768
0.00060239395
0.00064289632
0.0006727576
0.00069065312
0.0006980219
0.00070083111
0.00070103282
4.9949038e-05
0.00014983472
0.00027161993
0.00039033966
0.00049137826
0.00060452286
0.00068611697
0.00076498145
0.00082036766
0.00085872783
0.00087885
0.00088457779
0.000884617
0.00088299561
3.938127e-05
0.000138719
0.00028631682
0.00043811072
0.00057008101
0.00072169513
0.00083395543
0.00094433663
0.0010218878
0.0010739095
0.0010984449
0.0011024197
0.0010987813
0.0010947146
2.8017841e-05
0.00011187909
0.00027953227
0.00046675438
0.000632867
0.00082752997
0.00097519624
0.0011240071
0.0012307354
0.0013027621
0.001335711
0.001339246
0.0013320446
0.0013254184
1.9683514e-05
7.5430651e-05
0.00024598988
0.00046915985
0.00067306057
0.00091559363
0.0011031731
0.0012966188
0.0014390749
0.0015379423
0.0015847485
0.0015906459
0.0015812237
0.0015725705
1.5926561e-05
4.0992955e-05
0.00018013387
0.00043272897
0.00068072418
0.00097981585
0.0012147123
0.0014619268
0.0016488505
0.0017834405
0.0018517116
0.0018646225
0.0018558371
0.0018465282
1.4660357e-05
2.6297296e-05
0.00010091121
0.00034432662
0.00063792407
0.0010020973
0.0012913321
0.0016006372
0.0018399544
0.0020186173
0.0021164051
0.0021423848
0.0021389228
0.0021315535
1.3566076e-05
2.1878293e-05
5.0211937e-05
0.00021385411
0.00052909215
0.0009661677
0.0013183506
0.0016991076
0.0019993144
0.0022308076
0.002366748
0.0024128503
0.0024207896
0.0024189875
1.2725386e-05
1.8937989e-05
3.1266901e-05
9.5699791e-05
0.00035176319
0.00085392761
0.0012802032
0.0017442639
0.0021153738
0.0024096287
0.0025934498
0.0026678251
0.0026945284
0.0027028675
1.2070209e-05
1.6452491e-05
2.4355815e-05
3.9549254e-05
0.00013699825
0.00060884223
0.0011286187
0.0017051998
0.0021709991
0.0025498226
0.0028011721
0.0029191114
0.0029779237
0.0030046907
1.1576052e-05
1.4803297e-05
2.0135099e-05
2.8548164e-05
4.7123118e-05
0.00029009313
0.00083260792
0.0015392729
0.0021199815
0.0026007409
0.0029360716
0.0031119015
0.0032165388
0.003270619
1.1185371e-05
1.3523885e-05
1.7142205e-05
2.2518947e-05
2.9326799e-05
8.3351564e-05
0.00042910912
0.0012249303
0.0019458767
0.0025512132
0.0029903474
0.0032405139
0.0034064845
0.0034978524
1.0813235e-05
1.2360911e-05
1.4593275e-05
1.7626377e-05
2.1242934e-05
2.7561035e-05
8.1061923e-05
0.00063532
0.0015093411
0.0023076634
0.002908753
0.0032772518
0.0035436274
0.003696918
1.0533649e-05
1.1517973e-05
1.2850847e-05
1.4519448e-05
1.6322922e-05
1.9031415e-05
2.1636504e-05
0.00018341728
0.00089294417
0.0018758161
0.0026694647
0.0031787557
0.0035655556
0.0037936364
1.0227976e-05
1.0625942e-05
1.1105471e-05
1.1617666e-05
1.207408e-05
1.2615314e-05
1.3172682e-05
1.9214196e-05
0.00021245706
0.0010778216
0.002134425
0.0028670027
0.0034425912
0.0037876979
1.0031121e-05
1.0090177e-05
1.0166197e-05
1.0242966e-05
1.0301635e-05
1.0360635e-05
1.0406829e-05
1.0459372e-05
2.1930279e-05
0.00032420951
0.0013194764
0.0023128316
0.0031308983
0.0036247076
1.0001843e-05
1.0005615e-05
1.0009874e-05
1.0013909e-05
1.0017897e-05
1.002347e-05
1.002891e-05
1.0036677e-05
1.005118e-05
3.0070434e-05
0.0003906513
0.0013972063
0.0025340902
0.0032418967
1.000149e-05
1.0004129e-05
1.0007543e-05
1.00116e-05
1.0015907e-05
1.00222e-05
1.002835e-05
1.0036905e-05
1.0046161e-05
1.0388823e-05
4.2805657e-05
0.00044163109
0.0015982233
0.0025728495
1.0001381e-05
1.0003829e-05
1.0007006e-05
1.0010774e-05
1.0014785e-05
1.0020614e-05
1.0026302e-05
1.0034178e-05
1.0042732e-05
1.0053358e-05
1.0120314e-05
3.8318249e-05
0.00051817391
0.0015401211
1.0001272e-05
1.0003534e-05
1.0006452e-05
1.0009975e-05
1.0013691e-05
1.0019071e-05
1.0024318e-05
1.0031593e-05
1.0039493e-05
1.0049312e-05
1.0061264e-05
1.0606958e-05
5.8193706e-05
0.00044677202
1.0001162e-05
1.0003233e-05
1.0005899e-05
1.0009131e-05
1.0012534e-05
1.0017462e-05
1.002227e-05
1.0028935e-05
1.0036179e-05
1.004517e-05
1.0056164e-05
1.0068431e-05
1.0195923e-05
2.8442946e-05
1.0001055e-05
1.0002934e-05
1.0005358e-05
1.0008295e-05
1.0011387e-05
1.0015872e-05
1.0020246e-05
1.002631e-05
1.0032902e-05
1.0041085e-05
1.0051095e-05
1.0062196e-05
1.007713e-05
1.019819e-05
1.0000948e-05
1.0002637e-05
1.0004818e-05
1.0007462e-05
1.0010247e-05
1.0014284e-05
1.0018225e-05
1.0023691e-05
1.0029631e-05
1.0037003e-05
1.0046e-05
1.0056085e-05
1.0069773e-05
1.0083166e-05
1.0000848e-05
1.0002358e-05
1.0004309e-05
1.0006674e-05
1.0009167e-05
1.0012783e-05
1.0016313e-05
1.002121e-05
1.0026533e-05
1.0033138e-05
1.00412e-05
1.0050201e-05
1.0062445e-05
1.0074811e-05
1.0000747e-05
1.0002078e-05
1.0003799e-05
1.0005885e-05
1.0008085e-05
1.0011277e-05
1.0014394e-05
1.001872e-05
1.0023421e-05
1.0029254e-05
1.0036372e-05
1.0044319e-05
1.0055109e-05
1.0065996e-05
1.0000658e-05
1.0001829e-05
1.0003345e-05
1.0005183e-05
1.0007121e-05
1.0009935e-05
1.0012683e-05
1.0016497e-05
1.0020644e-05
1.0025788e-05
1.0032063e-05
1.0039065e-05
1.0048568e-05
1.0058149e-05
1.0000566e-05
1.0001575e-05
1.0002881e-05
1.0004465e-05
1.0006136e-05
1.0008563e-05
1.0010933e-05
1.0014223e-05
1.0017801e-05
1.002224e-05
1.0027652e-05
1.0033688e-05
1.0041875e-05
1.0050122e-05
1.0000491e-05
1.0001365e-05
1.0002497e-05
1.000387e-05
1.000532e-05
1.0007424e-05
1.000948e-05
1.0012336e-05
1.001544e-05
1.0019292e-05
1.0023988e-05
1.0029223e-05
1.003632e-05
1.0043463e-05
1.0000412e-05
1.0001144e-05
1.0002093e-05
1.0003245e-05
1.0004462e-05
1.0006227e-05
1.0007953e-05
1.0010349e-05
1.0012956e-05
1.001619e-05
1.0020131e-05
1.0024523e-05
1.0030473e-05
1.0036459e-05
1.0000351e-05
1.0000976e-05
1.0001785e-05
1.0002768e-05
1.0003806e-05
1.0005313e-05
1.0006786e-05
1.0008831e-05
1.0011056e-05
1.0013816e-05
1.001718e-05
1.0020928e-05
1.0026003e-05
1.0031105e-05
1.0000285e-05
1.0000793e-05
1.000145e-05
1.0002249e-05
1.0003093e-05
1.0004318e-05
1.0005514e-05
1.0007177e-05
1.0008986e-05
1.001123e-05
1.0013965e-05
1.0017011e-05
1.0021134e-05
1.0025275e-05
1.0000238e-05
1.0000661e-05
1.000121e-05
1.0001877e-05
1.0002581e-05
1.0003604e-05
1.0004603e-05
1.0005991e-05
1.0007501e-05
1.0009374e-05
1.0011658e-05
1.0014201e-05
1.0017641e-05
1.0021095e-05
1.0000188e-05
1.0000523e-05
1.0000957e-05
1.0001484e-05
1.0002041e-05
1.000285e-05
1.0003639e-05
1.0004737e-05
1.0005931e-05
1.0007412e-05
1.0009218e-05
1.0011229e-05
1.0013949e-05
1.0016677e-05
1.0000152e-05
1.0000422e-05
1.0000772e-05
1.0001198e-05
1.0001648e-05
1.0002301e-05
1.0002939e-05
1.0003825e-05
1.0004789e-05
1.0005985e-05
1.0007444e-05
1.0009067e-05
1.0011263e-05
1.0013465e-05
1.0000117e-05
1.0000325e-05
1.0000594e-05
1.0000922e-05
1.0001268e-05
1.0001771e-05
1.0002261e-05
1.0002943e-05
1.0003685e-05
1.0004605e-05
1.0005726e-05
1.0006976e-05
1.0008665e-05
1.0010357e-05
1.000009e-05
1.0000251e-05
1.0000459e-05
1.0000712e-05
1.0000979e-05
1.0001368e-05
1.0001747e-05
1.0002273e-05
1.0002845e-05
1.0003556e-05
1.0004422e-05
1.0005388e-05
1.0006692e-05
1.0007998e-05
1.0000067e-05
1.0000187e-05
1.0000342e-05
1.000053e-05
1.0000729e-05
1.0001018e-05
1.00013e-05
1.0001691e-05
1.0002117e-05
1.0002645e-05
1.0003289e-05
1.0004007e-05
1.0004978e-05
1.0005949e-05
1.0000049e-05
1.0000135e-05
1.0000248e-05
1.0000385e-05
1.000053e-05
1.000074e-05
1.0000945e-05
1.000123e-05
1.0001539e-05
1.0001923e-05
1.0002391e-05
1.0002914e-05
1.000362e-05
1.0004329e-05
1.0000035e-05
1.0000096e-05
1.0000176e-05
1.0000273e-05
1.0000376e-05
1.0000525e-05
1.0000671e-05
1.0000873e-05
1.0001092e-05
1.0001364e-05
1.0001696e-05
1.0002066e-05
1.0002568e-05
1.0003071e-05
1.0000023e-05
1.0000064e-05
1.0000117e-05
1.0000181e-05
1.0000249e-05
1.0000348e-05
1.0000445e-05
1.0000578e-05
1.0000723e-05
1.0000903e-05
1.0001122e-05
1.0001368e-05
1.00017e-05
1.0002034e-05
1.0000015e-05
1.0000041e-05
1.0000076e-05
1.0000117e-05
1.0000161e-05
1.0000225e-05
1.0000287e-05
1.0000374e-05
1.0000467e-05
1.0000583e-05
1.0000724e-05
1.0000883e-05
1.0001097e-05
1.0001313e-05
1.0000008e-05
1.0000021e-05
1.0000039e-05
1.0000061e-05
1.0000084e-05
1.0000116e-05
1.0000149e-05
1.0000193e-05
1.0000242e-05
1.00003e-05
1.0000373e-05
1.0000454e-05
1.0000565e-05
1.0000677e-05
1.0000003e-05
1.0000008e-05
1.0000014e-05
1.0000022e-05
1.0000031e-05
1.0000043e-05
1.0000055e-05
1.0000071e-05
1.0000089e-05
1.0000111e-05
1.0000136e-05
1.0000166e-05
1.0000208e-05
1.0000249e-05
4.5761585e-05
4.5783098e-05
4.5752975e-05
4.5702471e-05
4.5631997e-05
4.5573853e-05
4.5509522e-05
4.5461318e-05
4.5411881e-05
4.53762e-05
4.5341243e-05
4.5316907e-05
4.5294142e-05
4.5278788e-05
4.5265356e-05
4.5257036e-05
4.5250614e-05
4.5247352e-05
4.5245775e-05
4.5245971e-05
4.5247597e-05
4.5249992e-05
4.5253468e-05
4.5256936e-05
4.5261128e-05
4.5264714e-05
4.5268718e-05
4.5271829e-05
4.5274975e-05
4.5277072e-05
4.5278849e-05
4.5279582e-05
4.5279611e-05
4.5278842e-05
4.5276856e-05
4.5274198e-05
4.5269751e-05
4.5264656e-05
4.5257395e-05
4.5249434e-05
4.5238852e-05
4.5227371e-05
4.521305e-05
4.5197483e-05
4.5179039e-05
4.5158634e-05
4.5135535e-05
4.5109704e-05
4.5081556e-05
4.5049449e-05
4.5015771e-05
4.4976588e-05
4.4936917e-05
4.488978e-05
4.4843648e-05
4.478762e-05
4.4734543e-05
4.4668614e-05
4.4608096e-05
4.4531178e-05
4.4462705e-05
4.4373638e-05
4.4296172e-05
4.4194696e-05
4.4106279e-05
4.3992864e-05
4.3891647e-05
4.3765441e-05
4.3650121e-05
4.3510206e-05
4.3379329e-05
4.3224717e-05
4.3076719e-05
4.2906326e-05
4.2739463e-05
4.2552098e-05
4.2364473e-05
4.2158828e-05
4.1948309e-05
4.1722912e-05
4.1487145e-05
4.124035e-05
4.0976673e-05
4.0706609e-05
4.0412018e-05
4.0116537e-05
3.9787602e-05
3.9464209e-05
3.9096965e-05
3.8742725e-05
3.8332546e-05
3.7943957e-05
3.7485316e-05
3.7058107e-05
3.6544342e-05
3.6073227e-05
3.5496074e-05
3.4974338e-05
3.4323354e-05
3.3742268e-05
3.3003836e-05
3.2351719e-05
3.1507462e-05
3.0768147e-05
2.9792068e-05
2.894125e-05
0.0001448552
0.00014489674
0.00014478726
0.0001446302
0.00014442033
0.00014425114
0.00014406741
0.00014393234
0.00014379669
0.0001437014
0.00014361082
0.00014355042
0.00014349714
0.00014346422
0.00014343903
0.00014342726
0.00014342301
0.00014342632
0.00014343634
0.00014344969
0.00014346891
0.00014348845
0.00014351285
0.00014353513
0.00014356127
0.00014358351
0.00014360873
0.00014362904
0.00014365135
0.00014366815
0.00014368605
0.00014369835
0.00014371064
0.00014371806
0.00014372416
0.00014372644
0.00014372547
0.00014372107
0.00014371192
0.00014369951
0.00014368085
0.00014365871
0.00014362935
0.00014359576
0.00014355454
0.00014350755
0.00014345309
0.00014339093
0.00014332216
0.00014324258
0.00014315817
0.00014305894
0.00014295765
0.00014283635
0.00014271691
0.000142571
0.00014243212
0.00014225886
0.00014209923
0.00014189568
0.00014171397
0.00014147701
0.00014127049
0.00014099944
0.00014076289
0.00014045906
0.0001401876
0.00013984882
0.00013953901
0.00013916294
0.00013881101
0.00013839513
0.00013799697
0.00013753856
0.00013708967
0.00013658572
0.0001360812
0.00013552844
0.00013496284
0.00013435758
0.00013372487
0.00013306302
0.00013235647
0.00013163338
0.00013084538
0.00013005574
0.00012917767
0.00012831533
0.0001273373
0.00012639507
0.00012530561
0.00012427492
0.00012306036
0.00012193086
0.000120575
0.00011933395
0.00011781671
0.00011644808
0.00011474445
0.00011322755
0.00011130533
0.00010961287
0.0001074291
0.00010552347
0.00010301968
0.00010085453
0.00025690207
0.0002569093
0.00025667615
0.0002563975
0.00025604679
0.00025577278
0.00025548199
0.00025527317
0.00025506878
0.0002549299
0.000254803
0.00025472341
0.00025465942
0.00025462617
0.00025460891
0.00025461064
0.00025462778
0.00025465424
0.00025469446
0.00025473701
0.00025479172
0.00025484372
0.00025490626
0.00025496198
0.00025502664
0.0002550815
0.00025514388
0.00025519463
0.00025525155
0.00025529561
0.00025534459
0.00025538038
0.00025541934
0.00025544643
0.00025547471
0.00025549386
0.00025551065
0.00025551945
0.00025552297
0.00025551929
0.00025550747
0.00025548857
0.00025545948
0.00025542267
0.00025537452
0.00025531678
0.0002552475
0.00025516604
0.00025507396
0.00025496536
0.00025484848
0.00025470927
0.00025456571
0.00025439219
0.00025422005
0.00025400832
0.00025380569
0.00025355162
0.0002533166
0.00025301578
0.00025274641
0.00025239419
0.00025208648
0.00025168184
0.0002513281
0.00025087312
0.00025046615
0.00024995779
0.00024949259
0.0002489276
0.00024839869
0.0002477736
0.00024717513
0.00024648618
0.00024581174
0.00024505486
0.00024429754
0.00024346831
0.00024262052
0.00024171404
0.00024076743
0.00023977828
0.00023872368
0.00023764578
0.00023647289
0.00023529937
0.00023399675
0.00023271974
0.00023127438
0.00022988479
0.0002282819
0.00022676908
0.00022499127
0.00022334255
0.00022136966
0.00021956967
0.00021737725
0.00021540708
0.00021296527
0.00021080091
0.00020807236
0.00020568299
0.00020261891
0.00019996233
0.00019649892
0.00019353145
0.00038624742
0.00038615053
0.00038574179
0.00038532784
0.00038484132
0.00038447561
0.00038409857
0.00038383594
0.00038358791
0.00038342735
0.00038328974
0.00038321277
0.00038316309
0.0003831508
0.00038316546
0.00038320106
0.00038326238
0.00038333142
0.00038342348
0.00038351363
0.00038362427
0.00038372605
0.00038384603
0.00038395149
0.00038407296
0.00038417569
0.0003842926
0.00038438808
0.0003844961
0.00038458077
0.00038467654
0.00038474824
0.00038482878
0.00038488728
0.00038495203
0.00038500005
0.00038504883
0.00038508317
0.00038511352
0.00038513125
0.00038514046
0.00038513792
0.00038512337
0.00038509692
0.00038505622
0.00038500197
0.00038493248
0.00038484661
0.00038474618
0.00038462427
0.00038449032
0.0003843278
0.00038415785
0.00038394988
0.00038374153
0.00038348301
0.00038323386
0.00038291946
0.00038262711
0.00038225118
0.00038191321
0.00038146977
0.00038108123
0.00038056896
0.00038012012
0.00037954176
0.00037902357
0.00037837543
0.00037778162
0.00037705982
0.00037638362
0.00037558401
0.00037481814
0.00037393627
0.00037307289
0.00037210395
0.0003711346
0.00037007343
0.00036898891
0.00036782982
0.00036662011
0.0003653568
0.00036401093
0.00036263643
0.00036114223
0.00035964867
0.00035799272
0.0003563712
0.0003545384
0.0003527787
0.00035075203
0.00034884228
0.00034660203
0.0003445282
0.00034205171
0.00033979698
0.00033705723
0.00033460117
0.0003315655
0.0003288823
0.00032551051
0.00032256765
0.00031880767
0.00031556014
0.00031134521
0.00030775069
0.00053119629
0.00053092384
0.00053030366
0.00052976352
0.00052917827
0.0005287611
0.00052834968
0.00052807759
0.00052783753
0.00052769777
0.00052759698
0.00052756151
0.00052756905
0.00052761317
0.00052769854
0.00052780013
0.00052794068
0.00052808154
0.00052825734
0.00052842175
0.00052861747
0.00052879339
0.00052899759
0.00052917506
0.00052937811
0.00052954921
0.00052974372
0.00052990276
0.00053008352
0.00053022618
0.00053038915
0.00053051278
0.00053065405
0.00053075904
0.00053087856
0.00053097077
0.00053106967
0.00053114523
0.00053122046
0.00053127577
0.00053132411
0.00053135465
0.00053137285
0.00053137415
0.00053135935
0.00053132679
0.00053127593
0.00053120485
0.00053111539
0.00053100055
0.00053086946
0.00053070534
0.00053052974
0.00053031052
0.00053008758
0.00052980723
0.0005295342
0.00052918642
0.00052886057
0.00052843872
0.00052805733
0.00052755442
0.00052711188
0.00052652626
0.00052601147
0.00052534631
0.00052474887
0.0005240001
0.00052331284
0.00052247623
0.00052169143
0.00052076246
0.00051987188
0.00051884572
0.00051784051
0.00051671197
0.00051558263
0.00051434616
0.00051308247
0.00051173199
0.00051032282
0.00050885159
0.00050728484
0.00050568546
0.0005039478
0.00050221195
0.00050028878
0.00049840704
0.00049628204
0.00049424367
0.00049189853
0.00048969104
0.00048710471
0.0004847134
0.0004818617
0.00047926892
0.00047612326
0.00047330763
0.00046983338
0.00046676768
0.00046292228
0.00045957217
0.00045529988
0.00045161644
0.00044684506
0.00044278272
0.00070038152
0.00069986913
0.00069902916
0.0006984067
0.00069780844
0.00069742185
0.00069707672
0.00069687871
0.00069674203
0.00069670047
0.00069672232
0.00069679803
0.00069693915
0.00069710226
0.0006973265
0.00069755025
0.00069783101
0.00069809429
0.00069840879
0.00069869317
0.00069902375
0.00069931518
0.00069964888
0.00069993587
0.00070026196
0.00070053549
0.00070084575
0.00070109935
0.00070138815
0.000701617
0.00070188001
0.00070208122
0.0007023136
0.00070248877
0.00070269165
0.00070285177
0.00070302859
0.00070316923
0.00070331652
0.0007034335
0.00070354765
0.00070363566
0.00070371283
0.00070376665
0.0007038037
0.00070381815
0.00070381179
0.00070378154
0.00070372895
0.0007036481
0.00070354596
0.00070340819
0.00070325331
0.00070305201
0.00070284127
0.00070256965
0.00070230011
0.00070195112
0.00070161991
0.00070118617
0.0007007904
0.00070026419
0.00069979792
0.00069917716
0.00069862857
0.00069791655
0.00069727445
0.00069646696
0.00069572354
0.00069481627
0.0006939632
0.0006929515
0.00069197992
0.00069085888
0.00068975932
0.00068852363
0.00068728597
0.00068593001
0.00068454341
0.00068306101
0.00068151374
0.00067989806
0.00067817734
0.00067642084
0.00067451272
0.00067260697
0.00067049621
0.00066843164
0.00066610122
0.00066386689
0.00066129772
0.00065888077
0.00065605093
0.00065343618
0.00065032022
0.00064748915
0.00064405698
0.00064098698
0.00063720144
0.00063386301
0.00062967779
0.00062603297
0.00062138544
0.00061737775
0.00061218371
0.00060775626
0.00088126785
0.00088052193
0.00087954298
0.00087894959
0.00087849673
0.00087827686
0.00087815638
0.00087815896
0.00087826573
0.00087843305
0.00087869763
0.00087897988
0.00087935698
0.00087972129
0.00088017235
0.0008805894
0.00088108626
0.00088153384
0.00088205322
0.00088251181
0.00088303547
0.00088349018
0.00088400502
0.00088444376
0.00088493911
0.00088535268
0.00088582046
0.00088620224
0.00088663718
0.00088698244
0.00088738054
0.00088768654
0.00088804219
0.00088831257
0.00088862892
0.00088888191
0.00088916587
0.00088939667
0.00088964462
0.00088984864
0.00089005675
0.00089022801
0.00089039201
0.00089052474
0.0008906414
0.0008907301
0.00089079617
0.00089083504
0.00089084761
0.00089083032
0.00089078595
0.00089070562
0.00089060095
0.00089045041
0.00089028223
0.00089005414
0.00088981947
0.00088950637
0.00088920235
0.00088879639
0.00088842015
0.00088791314
0.00088745882
0.00088684812
0.00088630389
0.00088559253
0.00088494694
0.00088413077
0.0008833757
0.0008824505
0.00088157731
0.00088053853
0.00087953804
0.00087838086
0.00087724328
0.0008759625
0.00087467741
0.00087326747
0.00087182372
0.00087027855
0.0008686641
0.00086697687
0.00086517853
0.00086334165
0.00086134508
0.00085935009
0.00085713958
0.00085497673
0.00085253466
0.00085019271
0.00084749907
0.00084496448
0.0008419962
0.0008392528
0.00083598237
0.00083300982
0.00082940432
0.00082617725
0.0008221946
0.00081867871
0.00081426496
0.00081041452
0.00080549337
0.00080123763
0.00079570141
0.00079095915
0.0010916939
0.0010908045
0.0010898837
0.0010895345
0.0010895132
0.0010897
0.0010900811
0.0010905047
0.0010910991
0.0010916687
0.0010923865
0.0010930433
0.0010938373
0.0010945487
0.0010953833
0.001096121
0.0010969703
0.0010977139
0.0010985579
0.0010992891
0.0011001119
0.0011008169
0.0011016072
0.0011022749
0.0011030241
0.0011036464
0.001104348
0.0011049193
0.0011055697
0.0011060861
0.0011066826
0.0011071423
0.0011076788
0.0011080888
0.0011085719
0.0011089615
0.0011094035
0.0011097677
0.0011101651
0.0011104991
0.0011108482
0.0011111454
0.0011114416
0.0011116957
0.001111936
0.0011121415
0.001112323
0.0011124739
0.0011125939
0.0011126835
0.0011127385
0.0011127596
0.0011127462
0.0011126913
0.0011126065
0.0011124678
0.0011123087
0.0011120786
0.0011118425
0.0011115129
0.0011111971
0.0011107596
0.0011103587
0.0011098097
0.0011093127
0.0011086544
0.0011080501
0.0011072787
0.0011065587
0.00110567
0.0011048256
0.0011038154
0.0011028372
0.0011017008
0.0011005789
0.0010993112
0.0010980348
0.0010966303
0.001095188
0.0010936407
0.0010920201
0.001090323
0.0010885103
0.0010866554
0.0010846357
0.0010826143
0.0010803707
0.0010781722
0.001075686
0.0010732982
0.0010705472
0.0010679545
0.0010649129
0.0010620967
0.0010587323
0.0010556678
0.0010519414
0.0010485969
0.0010444557
0.0010407868
0.0010361611
0.001032106
0.0010268925
0.0010223536
0.0010164003
0.0010112496
0.0013212654
0.0013205097
0.0013200479
0.0013202993
0.0013211428
0.0013220848
0.001323361
0.0013245144
0.0013259343
0.0013271713
0.0013286285
0.0013298863
0.0013313398
0.0013325924
0.0013340174
0.0013352427
0.0013366224
0.0013378062
0.0013391289
0.0013402583
0.0013415146
0.0013425798
0.0013437638
0.0013447568
0.0013458644
0.0013467804
0.0013478093
0.0013486448
0.0013495946
0.0013503485
0.0013512195
0.0013518916
0.0013526774
0.0013532801
0.0013539928
0.0013545707
0.0013552306
0.0013557789
0.001356383
0.0013568969
0.0013574417
0.0013579141
0.0013583951
0.0013588195
0.0013592342
0.0013596053
0.0013599515
0.0013602634
0.0013605387
0.0013607846
0.001360986
0.0013611584
0.0013612827
0.0013613739
0.0013614182
0.0013614204
0.0013613822
0.0013612877
0.0013611647
0.0013609653
0.0013607551
0.0013604423
0.0013601403
0.0013597094
0.001359306
0.0013587575
0.0013582424
0.0013575727
0.0013569374
0.0013561428
0.0013553783
0.0013544544
0.0013535511
0.0013524934
0.0013514411
0.0013502444
0.0013490318
0.0013476904
0.0013463056
0.0013448131
0.0013432427
0.0013415915
0.0013398205
0.0013380016
0.0013360134
0.0013340167
0.0013317924
0.0013296055
0.0013271234
0.0013247313
0.001321965
0.0013193483
0.0013162662
0.0013134009
0.001309962
0.0013068151
0.0013029682
0.0012994964
0.0012951699
0.0012913112
0.0012864084
0.0012820743
0.0012764479
0.0012714987
0.0012649279
0.0012591627
0.001567917
0.0015677986
0.0015684336
0.0015698025
0.0015721124
0.0015742823
0.0015769818
0.0015792769
0.0015819713
0.0015842275
0.0015868031
0.0015889621
0.0015913955
0.0015934456
0.0015957341
0.0015976673
0.0015998112
0.0016016253
0.0016036287
0.0016053211
0.0016071869
0.0016087557
0.0016104877
0.0016119312
0.0016135335
0.0016148528
0.00161633
0.0016175264
0.0016188839
0.0016199601
0.001621203
0.0016221623
0.0016232849
0.0016241472
0.0016251693
0.0016260006
0.0016269534
0.0016277493
0.0016286312
0.0016293869
0.001630195
0.0016309032
0.0016316331
0.0016322872
0.0016329375
0.0016335328
0.0016341025
0.0016346334
0.0016351208
0.0016355805
0.001635983
0.0016363642
0.0016366791
0.0016369737
0.0016371985
0.0016373988
0.0016375317
0.0016376301
0.0016376691
0.0016376576
0.0016376008
0.0016374707
0.0016373146
0.0016370594
0.0016367968
0.0016364146
0.001636036
0.0016355235
0.0016350202
0.0016343735
0.0016337363
0.0016329512
0.0016321697
0.0016312412
0.0016303045
0.0016292271
0.001628123
0.0016268901
0.0016256052
0.0016242093
0.0016227285
0.0016211604
0.0016194661
0.0016177147
0.0016157872
0.0016138398
0.0016116562
0.0016094965
0.0016070297
0.0016046383
0.0016018543
0.0015992047
0.0015960623
0.0015931214
0.0015895653
0.0015862874
0.0015822474
0.0015785711
0.0015739471
0.0015697847
0.0015644404
0.0015596647
0.0015533909
0.0015478052
0.0015402883
0.0015335942
0.0018426945
0.0018441066
0.0018469011
0.0018502123
0.0018549284
0.0018590573
0.0018639944
0.0018680648
0.0018727251
0.0018765425
0.0018808223
0.0018843466
0.0018882575
0.0018915034
0.0018950806
0.0018980653
0.0019013391
0.0019040808
0.0019070818
0.0019095956
0.0019123474
0.0019146455
0.0019171682
0.0019192596
0.001921571
0.0019234666
0.0019255827
0.0019272918
0.0019292273
0.0019307594
0.0019325273
0.0019338913
0.0019354875
0.0019367144
0.0019381704
0.0019393565
0.0019407191
0.0019418608
0.0019431305
0.0019442236
0.0019453986
0.0019464352
0.0019475117
0.0019484856
0.0019494638
0.0019503712
0.0019512522
0.001952088
0.0019528708
0.0019536287
0.0019543117
0.001954984
0.0019555652
0.0019561442
0.0019566217
0.0019570996
0.0019574722
0.0019578416
0.0019581082
0.0019583611
0.0019585203
0.0019586477
0.0019586976
0.0019586904
0.0019586265
0.0019584794
0.0019582937
0.0019580032
0.0019576864
0.0019572484
0.0019567902
0.0019561999
0.0019555889
0.0019548404
0.001954064
0.0019531506
0.0019521944
0.0019511078
0.0019499559
0.0019486865
0.0019473204
0.0019458558
0.0019442532
0.0019425783
0.0019407142
0.0019388119
0.0019366561
0.0019345038
0.0019320207
0.0019295908
0.0019267339
0.0019239897
0.0019207028
0.001917597
0.0019138029
0.0019102712
0.0019058723
0.0019018271
0.0018966824
0.0018920011
0.0018859201
0.0018804229
0.001873115
0.0018665331
0.0018575664
0.0018494791
0.0021307557
0.0021349824
0.0021413684
0.0021476655
0.0021559376
0.0021629015
0.0021710418
0.0021776347
0.0021850731
0.0021910881
0.0021977584
0.0022031921
0.0022091628
0.0022140708
0.002219434
0.0022238717
0.0022287029
0.0022327192
0.0022370875
0.002240724
0.0022446836
0.002247973
0.0022515682
0.0022545363
0.0022578047
0.0022604766
0.0022634512
0.002265848
0.002268557
0.0022706982
0.0022731662
0.0022750689
0.0022772945
0.0022790051
0.0022810361
0.0022826917
0.0022845958
0.0022861939
0.0022879747
0.0022895118
0.002291169
0.0022926368
0.0022941678
0.0022955606
0.0022969681
0.0022982834
0.0022995707
0.0023008046
0.0023019724
0.0023031183
0.0023041661
0.0023052168
0.0023061434
0.0023070908
0.0023078953
0.002308732
0.0023094141
0.0023101326
0.0023106922
0.0023112845
0.0023117205
0.0023121772
0.0023124895
0.0023127977
0.0023129855
0.0023131351
0.0023131918
0.0023131789
0.0023130939
0.0023129137
0.002312675
0.0023123215
0.0023119155
0.0023113812
0.0023107927
0.0023100685
0.0023092796
0.0023083547
0.0023073452
0.0023062062
0.0023049521
0.0023035819
0.0023020542
0.0023004319
0.0022985974
0.0022966991
0.0022945172
0.0022923117
0.0022897343
0.0022871829
0.0022841468
0.0022811988
0.0022776275
0.0022742172
0.0022700053
0.0022660455
0.0022610606
0.0022564306
0.0022504824
0.0022450193
0.0022378528
0.0022313149
0.0022225473
0.0022145875
0.0022036559
0.002193721
0.0024242379
0.0024329221
0.0024446627
0.0024551791
0.0024683361
0.0024791322
0.0024915663
0.0025015215
0.0025126499
0.0025215764
0.0025314074
0.0025393614
0.0025480468
0.0025551417
0.0025628512
0.0025691949
0.002576066
0.0025817492
0.0025879026
0.0025930024
0.002598534
0.0026031115
0.0026080985
0.0026122022
0.0026167088
0.0026203833
0.0026244651
0.0026277476
0.0026314514
0.0026343747
0.0026377406
0.0026403332
0.002643364
0.0026456926
0.0026484571
0.002650711
0.0026533044
0.0026554826
0.0026579124
0.0026600124
0.0026622801
0.0026642931
0.002666398
0.002668319
0.0026702671
0.0026720956
0.0026738932
0.0026756259
0.0026772758
0.0026789067
0.0026804095
0.0026819311
0.0026832871
0.0026846914
0.0026859006
0.00268718
0.0026882435
0.0026893907
0.0026903091
0.0026913156
0.0026920884
0.0026929441
0.0026935733
0.0026942602
0.0026947489
0.0026952513
0.0026955944
0.0026959074
0.0026960923
0.0026962098
0.0026962219
0.002696136
0.0026959586
0.0026956594
0.0026952732
0.0026947485
0.0026941306
0.0026933657
0.0026924902
0.0026914664
0.0026903019
0.0026889961
0.0026875039
0.0026858878
0.0026840249
0.0026820658
0.0026797779
0.0026774338
0.0026746575
0.0026718764
0.0026685274
0.0026652425
0.002661221
0.0026573443
0.0026525118
0.0026479316
0.0026421167
0.0026366744
0.002629633
0.0026231248
0.0026145318
0.0026066489
0.0025960288
0.0025863483
0.0025730026
0.0025608403
0.0027179223
0.0027330703
0.0027522397
0.0027683879
0.0027879252
0.0028036609
0.0028215907
0.0028358289
0.002851645
0.0028642631
0.002878096
0.0028892376
0.0029013535
0.0029112093
0.0029218784
0.0029306245
0.0029400646
0.0029478451
0.0029562429
0.0029631808
0.0029706851
0.0029768775
0.0029836078
0.002989133
0.0029951876
0.0030001145
0.0030055782
0.0030099648
0.0030149077
0.0030188042
0.0030232863
0.0030267358
0.0030307656
0.0030338602
0.0030375331
0.0030405273
0.0030439727
0.0030468672
0.0030500975
0.003052891
0.0030559099
0.0030585929
0.0030614022
0.003063971
0.0030665811
0.0030690371
0.003071458
0.0030737991
0.0030760358
0.0030782561
0.0030803111
0.003082403
0.0030842778
0.0030862329
0.0030879291
0.00308974
0.00309126
0.0030929192
0.0030942647
0.0030957628
0.0030969339
0.0030982596
0.0030992605
0.0031003899
0.0031012283
0.0031021383
0.0031028105
0.0031034953
0.0031039859
0.0031044376
0.0031047286
0.0031049368
0.003105007
0.0031049587
0.0031047838
0.0031044625
0.0031040135
0.0031033998
0.0031026432
0.0031017124
0.0031006073
0.0030993285
0.0030978252
0.0030961616
0.003094205
0.0030921135
0.0030896332
0.0030870604
0.0030839757
0.0030808534
0.0030770565
0.0030733018
0.0030686668
0.0030641663
0.0030585199
0.0030531386
0.003046267
0.0030398046
0.0030314115
0.0030236267
0.003013312
0.0030038268
0.0029910318
0.0029793543