/*--------------------------------*- C++ -*----------------------------------*\
| =========                 |                                                 |
| \\      /  F ield         | OpenFOAM: The Open Source CFD Toolbox           |
|  \\    /   O peration     | Version:  2406                                  |
|   \\  /    A nd           | Website:  www.openfoam.com                      |
|    \\/     M anipulation  |                                                 |
\*---------------------------------------------------------------------------*/
FoamFile
{
    version     2.0;
    format      ascii;
    arch        "LSB;label=32;scalar=64";
    class       volScalarField;
    location    "0";
    object      p;
}
// * * * * * * * * * * * * * * * * * * * * * * * * * * * * * * * * * * * * * //

dimensions      [0 2 -2 0 0 0 0];

internalField   nonuniform List<scalar> 
24384
(
21.638956
23.002787
25.627827
28.140807
30.008548
31.808114
32.914838
33.82462
34.348852
34.509708
34.298458
33.823887
33.163961
32.579805
21.638846
23.002288
25.626981
28.139703
30.00721
31.806536
32.913155
33.822955
34.347335
34.508472
34.297594
33.823356
33.163707
32.579694
21.638774
23.000872
25.623771
28.135611
30.002752
31.802043
32.908923
33.81926
34.34427
34.506152
34.29606
33.822445
33.163281
32.579508
21.639266
22.999046
25.618663
28.12942
29.996478
31.796151
32.903593
33.814753
34.340604
34.50341
34.294262
33.821382
33.162785
32.579291
21.641006
22.999034
25.614577
28.123595
29.990104
31.789764
32.897614
33.809574
34.336342
34.500209
34.292159
33.82014
33.162206
32.579038
21.644557
23.002066
25.612297
28.118543
29.983804
31.782793
32.890732
33.80338
34.331146
34.496268
34.289562
33.818605
33.161491
32.578725
21.649633
23.008499
25.612574
28.11503
29.978469
31.77618
32.883791
33.796815
34.325473
34.491886
34.286646
33.816876
33.160685
32.578372
21.656477
23.019086
25.616502
28.1134
29.97414
31.769803
32.876583
33.789577
34.318965
34.486716
34.283139
33.814778
33.159702
32.577942
21.664684
23.033751
25.625099
28.114897
29.971892
31.764628
32.87002
33.782454
34.312235
34.48116
34.279265
33.812423
33.158589
32.577455
21.674458
23.049681
25.640639
28.120929
29.972674
31.761333
32.864657
33.775902
34.305647
34.47546
34.275144
33.809866
33.157366
32.576922
21.687292
23.067351
25.661482
28.135232
29.978222
31.76091
32.861069
33.770192
34.299305
34.469611
34.270712
33.80704
33.155994
32.576326
21.707017
23.08403
25.682282
28.158684
29.991379
31.76501
32.860615
33.766382
34.294047
34.464225
34.266359
33.804166
33.154573
32.575718
21.735351
23.10382
25.697536
28.185648
30.014323
31.775349
32.864478
33.765303
34.290471
34.459711
34.262335
33.801392
33.153176
32.575135
21.774816
23.131289
25.706479
28.207569
30.044172
31.794396
32.873894
33.767745
34.289097
34.456386
34.258825
33.798828
33.151862
32.574618
21.836379
23.173204
25.717624
28.216118
30.073027
31.82663
32.893174
33.775869
34.291091
34.454628
34.255809
33.796389
33.150592
32.574217
21.919113
23.229072
25.733687
28.216596
30.079558
31.857475
32.922783
33.790503
34.297143
34.455459
34.254069
33.794627
33.149711
32.573842
22.025092
23.300461
25.75597
28.216666
30.072089
31.869546
32.951752
33.813262
34.307286
34.457874
34.253546
33.793665
33.149134
32.573391
22.187896
23.411538
25.79344
28.21807
30.058031
31.857522
32.958045
33.839929
34.326905
34.462845
34.254051
33.793131
33.148619
32.573456
22.365573
23.534213
25.84113
28.220852
30.043601
31.836112
32.939728
33.841683
34.339427
34.469426
34.254889
33.792794
33.148572
32.573886
22.612314
23.702248
25.912329
28.230538
30.025987
31.805342
32.907757
33.820818
34.327644
34.46878
34.255055
33.792482
33.148768
32.574593
22.877717
23.889551
25.991201
28.242281
30.008062
31.772437
32.873396
33.789069
34.299793
34.45171
34.248697
33.791025
33.148843
32.575359
23.186767
24.114853
26.086583
28.257788
29.989175
31.734638
32.832405
33.749824
34.264864
34.424396
34.232308
33.785251
33.148255
32.576054
23.512594
24.355703
26.195213
28.280166
29.971383
31.694283
32.787907
33.706873
34.226213
34.39332
34.210863
33.773896
33.145136
32.576093
23.868399
24.625296
26.323658
28.309633
29.954146
31.650086
32.73794
33.657913
34.181978
34.35751
34.185877
33.759083
33.138903
32.574301
24.247186
24.919568
26.472431
28.349266
29.938917
31.602885
32.682908
33.603192
34.132146
34.316964
34.1574
33.741876
33.130514
32.570446
24.649992
25.240063
26.64331
28.40008
29.927117
31.552975
32.62258
33.542096
34.076032
34.271076
34.124937
33.722037
33.120658
32.565582
25.071896
25.584312
26.837451
28.465031
29.921007
31.501382
32.557258
33.474451
34.013253
34.21935
34.088079
33.699337
33.109164
32.559935
25.517945
25.956527
27.058776
28.54709
29.922101
31.448207
32.486165
33.398973
33.942363
34.16046
34.045832
33.672956
33.095795
32.553489
25.967716
26.340363
27.300023
28.64625
29.933128
31.397008
32.412513
33.31821
33.865387
34.095888
33.999022
33.643538
33.08066
32.546069
26.448218
26.75851
27.576546
28.770869
29.957056
31.346026
32.332242
33.226902
33.776901
34.020828
33.944053
33.608583
33.062543
32.537059
26.906565
27.164889
27.859307
28.910457
29.994406
31.302724
32.254745
33.134518
33.685501
33.942226
33.885759
33.57106
33.04285
32.527133
27.407447
27.616135
28.187891
29.086551
30.05316
31.263119
32.170153
33.027926
33.57751
33.847895
33.814826
33.52477
33.018242
32.514547
27.853164
28.023634
28.497675
29.266171
30.124406
31.23722
32.096279
32.928008
33.473293
33.755127
33.74392
33.477765
32.992872
32.501365
28.355778
28.488989
28.865069
29.494859
30.228444
31.221358
32.016577
32.810225
33.346144
33.639425
33.653833
33.416987
32.959506
32.483733
28.768316
28.875249
29.180516
29.704312
30.335286
31.22191
31.956101
32.710021
33.233446
33.534201
33.570159
33.359426
32.927298
32.466409
29.251038
29.331642
29.564465
29.97451
30.487458
31.242048
31.894295
32.590079
33.091545
33.397519
33.458731
33.281024
32.882442
32.441808
29.623068
29.686356
29.870662
30.201251
30.626359
31.274885
31.856006
32.497013
32.974611
33.280782
33.36087
33.210454
32.841069
32.418656
30.044966
30.091469
30.228043
30.477713
30.80835
31.334194
31.826438
32.39318
32.834143
33.134467
33.234169
33.116496
32.784423
32.386251
30.373669
30.409002
30.5134
30.706873
30.968691
31.398871
31.816425
32.315618
32.719432
33.009059
33.121584
33.030441
32.730944
32.354947
30.713538
30.738978
30.814583
30.956525
31.152661
31.485766
31.821914
32.241467
32.596776
32.867127
32.988756
32.92538
32.663364
32.314384
30.98816
31.006713
31.062099
31.16712
31.314606
31.571876
31.840172
32.188241
32.495787
32.742682
32.866945
32.825484
32.596726
32.273348
31.241252
31.254323
31.2935
31.368423
31.475128
31.665782
31.870817
32.14725
32.402445
32.618946
32.73949
32.716625
32.521074
32.225452
31.451821
31.460902
31.488214
31.540815
31.616601
31.754788
31.907434
32.12061
32.325724
32.509061
32.620188
32.610392
32.444141
32.175452
31.621766
31.628014
31.646866
31.683369
31.736443
31.83481
31.945889
32.105783
32.265387
32.414883
32.511963
32.509554
32.368033
32.124493
31.764461
31.76858
31.78104
31.805287
31.840817
31.907648
31.984642
32.098613
32.216381
32.331627
32.410922
32.411406
32.290943
32.071086
31.861421
31.864228
31.87274
31.889363
31.913857
31.960402
32.014832
32.097092
32.184294
32.272234
32.334906
32.334699
32.228031
32.026049
31.937009
31.938862
31.944504
31.955561
31.971939
32.003352
32.040568
32.097945
32.160098
32.224052
32.270246
32.267394
32.170913
31.984004
31.970841
31.972285
31.976704
31.985388
31.998288
32.023153
32.052828
32.099036
32.149649
32.202124
32.239131
32.233894
32.142146
31.962326
31.964189
31.562122
31.117735
30.785512
30.410655
30.119758
29.79247
29.534671
29.246008
29.014798
28.760567
28.553355
28.327517
28.144253
27.946523
27.784912
27.612541
27.47348
27.327484
27.211473
27.091678
26.998709
26.905569
26.837218
26.772367
26.729433
26.693911
26.676823
26.67171
26.680315
26.705988
26.739287
26.795589
26.853233
26.939989
27.027991
27.150319
27.273636
27.435168
27.59921
27.803775
28.014453
28.265991
28.529664
28.832149
29.155591
29.513003
29.903451
30.319886
30.785167
31.26478
31.813135
32.360038
33.000141
33.618402
34.359361
35.05302
35.904391
36.677439
37.649202
38.505593
39.608168
40.55779
41.789878
42.85325
44.204775
45.399585
46.876063
48.212601
49.819615
51.308557
53.051706
54.704093
56.588976
58.41618
60.44841
62.462119
64.647307
66.85949
69.203243
71.626094
74.134001
76.779905
79.457523
82.338979
85.191819
88.321378
91.354916
94.745102
97.964734
101.62798
105.03907
108.98759
112.59538
116.84115
120.6508
125.20514
129.22149
134.095
138.32236
143.52388
147.96517
153.50085
158.15757
164.02773
168.88961
31.964167
31.562133
31.117769
30.785558
30.41071
30.119819
29.792535
29.53474
29.246079
29.01487
28.760641
28.553431
28.327594
28.144331
27.946601
27.784992
27.61262
27.47356
27.327564
27.211552
27.091756
26.998785
26.905643
26.837289
26.772434
26.729496
26.693969
26.676875
26.671755
26.680352
26.706015
26.739305
26.795594
26.853227
26.939969
27.027956
27.150266
27.273565
27.435073
27.599093
27.80363
28.014281
28.265786
28.529424
28.831872
29.155272
29.512638
29.903037
30.319419
30.78464
31.264192
31.812476
32.359308
32.999328
33.617508
34.35837
35.051936
35.903193
36.676137
37.647767
38.504041
39.606462
40.555951
41.787864
42.851083
44.202411
45.397046
46.873304
48.20964
49.816409
51.305121
53.047997
54.700122
56.5847
58.411606
60.4435
62.456871
64.641688
66.85349
69.196832
71.619253
74.126708
76.772128
79.44925
82.330163
85.182459
88.311411
91.344352
94.73386
97.95284
101.61533
105.0257
108.97339
112.58041
116.82524
120.63404
125.18737
129.2028
134.07518
138.30155
143.50182
147.94204
153.47637
158.13195
164.00064
168.86125
31.964128
31.562145
31.117819
30.785628
30.410794
30.11991
29.792632
29.53484
29.246182
29.014976
28.760749
28.55354
28.327705
28.144442
27.946714
27.785105
27.612734
27.473673
27.327677
27.211664
27.091867
26.998895
26.90575
26.837393
26.772534
26.729593
26.694059
26.676959
26.671831
26.68042
26.706073
26.739353
26.795629
26.853251
26.939976
27.027948
27.150239
27.273519
27.435003
27.598999
27.803507
28.014128
28.265598
28.529201
28.831607
29.154964
29.512282
29.902628
30.318953
30.784112
31.263598
31.811808
32.358565
32.998497
33.616591
34.357349
35.050818
35.901954
36.674787
37.646278
38.502426
39.604686
40.554034
41.785762
42.84882
44.199941
45.394391
46.870418
48.206543
49.813054
51.301525
53.044115
54.695966
56.580228
58.406824
60.438369
62.45139
64.635822
66.84723
69.190151
71.61213
74.119123
76.76405
79.440668
82.321033
85.172779
88.301123
91.333469
94.722306
97.940642
101.60239
105.01208
108.95896
112.56523
116.80919
120.6172
125.16957
129.18417
134.05554
138.28103
143.48025
147.91956
153.4528
158.1075
163.9751
168.83477
31.964081
31.562158
31.117875
30.785706
30.410889
30.120014
29.792743
29.534955
29.246301
29.015097
28.760872
28.553665
28.327831
28.14457
27.946843
27.785234
27.612864
27.473803
27.327806
27.211793
27.091995
26.99902
26.905872
26.837512
26.772649
26.729702
26.694161
26.677054
26.671917
26.680497
26.706138
26.739406
26.795667
26.853275
26.939982
27.027936
27.150203
27.273461
27.434917
27.598885
27.803358
28.013945
28.265374
28.528935
28.831292
29.154597
29.511859
29.902143
30.318402
30.783487
31.262896
31.811018
32.357688
32.997516
33.615509
34.356145
35.049499
35.900493
36.673197
37.644522
38.500525
39.602593
40.551775
41.783286
42.846155
44.197033
45.391265
46.86702
48.202896
49.809105
51.297292
53.039547
54.691075
56.574966
58.401196
60.432331
62.444939
64.62892
66.839865
69.182289
71.603749
74.110199
76.754546
79.430572
82.310291
85.161393
88.289022
91.320669
94.708716
97.926297
101.58718
104.99605
108.94199
112.54739
116.79032
120.59741
125.14868
129.16231
134.0325
138.25699
143.45498
147.89328
153.42528
158.07898
163.94538
168.80401
31.964026
31.562172
31.117939
30.785796
30.410998
30.120133
29.792869
29.535086
29.246436
29.015235
28.761013
28.553808
28.327976
28.144715
27.94699
27.785382
27.613012
27.473951
27.327954
27.211939
27.092139
26.999163
26.906012
26.837649
26.772779
26.729826
26.694278
26.677163
26.672015
26.680584
26.706211
26.739467
26.79571
26.853303
26.939988
27.027922
27.150163
27.273395
27.434818
27.598755
27.803189
28.013737
28.265119
28.528631
28.830934
29.154181
29.511378
29.901591
30.317776
30.782775
31.262098
31.81012
32.356689
32.996399
33.614277
34.354776
35.047999
35.898832
36.671387
37.642525
38.49836
39.600212
40.549205
41.780469
42.843122
44.193723
45.387707
46.863153
48.198746
49.804609
51.292474
53.034345
54.685505
56.568972
58.394786
60.425452
62.437591
64.621056
66.831472
69.173329
71.594196
74.100025
76.743709
79.419057
82.298038
85.148401
88.27521
91.306056
94.693198
97.909911
101.5698
104.97774
108.92258
112.52698
116.76873
120.57475
125.12474
129.13723
134.00606
138.22937
143.42592
147.863
153.39352
158.04603
163.91094
168.76829
31.963957
31.562187
31.118015
30.785904
30.411129
30.120275
29.793022
29.535244
29.2466
29.015402
28.761183
28.553981
28.32815
28.144891
27.947167
27.78556
27.61319
27.47413
27.328132
27.212116
27.092314
26.999335
26.90618
26.837812
26.772936
26.729977
26.694419
26.677295
26.672133
26.680691
26.706301
26.739541
26.795764
26.853337
26.939997
27.027908
27.150117
27.273318
27.434704
27.598603
27.80299
28.013491
28.264818
28.528273
28.83051
29.153688
29.510808
29.900938
30.317032
30.781932
31.261151
31.809054
32.355504
32.995073
33.612815
34.353149
35.046217
35.896857
36.669237
37.640151
38.495788
39.597382
40.546151
41.77712
42.839516
44.189787
45.383477
46.858554
48.193808
49.799261
51.28674
53.028155
54.678878
56.561839
58.387157
60.417265
62.428843
64.611692
66.821476
69.162657
71.582817
74.087904
76.730797
79.405333
82.283431
85.132911
88.258741
91.288626
94.674684
97.890358
101.54905
104.95587
108.8994
112.5026
116.74291
120.54764
125.09608
129.10721
133.97437
138.19624
143.39102
147.82661
153.3553
158.0063
163.86933
168.72504
31.963879
31.562202
31.118101
30.786025
30.411276
30.120436
29.793193
29.535421
29.246783
29.015588
28.761373
28.554172
28.328345
28.145087
27.947365
27.785759
27.613389
27.474329
27.32833
27.212313
27.092509
26.999527
26.906367
26.837995
26.773112
26.730145
26.694576
26.677442
26.672266
26.68081
26.706402
26.739625
26.795824
26.853378
26.94001
27.027894
27.150068
27.273237
27.43458
27.598437
27.802774
28.013223
28.26449
28.527882
28.830047
29.153148
29.510184
29.900221
30.316218
30.781008
31.260113
31.807885
32.354204
32.99362
33.611212
34.351364
35.044262
35.894691
36.666877
37.637547
38.492965
39.594275
40.542797
41.773443
42.835557
44.185465
45.37883
46.853501
48.188385
49.793386
51.280441
53.021353
54.671594
56.553998
58.378769
60.408261
62.419222
64.601392
66.810481
69.150915
71.570293
74.074562
76.71658
79.390221
82.267343
85.115846
88.24059
91.269412
94.654268
97.868788
101.52615
104.93172
108.8738
112.47565
116.71437
120.51765
125.06436
129.07394
133.93922
138.15945
143.35223
147.78611
153.31269
157.96192
163.82273
168.67647
31.963785
31.562222
31.118206
30.786174
30.411457
30.120632
29.793402
29.535638
29.247007
29.015816
28.761605
28.554408
28.328582
28.145327
27.947606
27.786001
27.613632
27.474572
27.328572
27.212553
27.092746
26.999761
26.906596
26.838217
26.773325
26.730349
26.694768
26.677621
26.672428
26.680956
26.706525
26.739728
26.795899
26.853429
26.940026
27.027878
27.150011
27.27314
27.434432
27.598239
27.802514
28.012901
28.264094
28.52741
28.829489
29.152498
29.509431
29.899358
30.315236
30.779892
31.25886
31.806474
32.352635
32.991865
33.609275
34.349209
35.0419
35.892074
36.664027
37.634399
38.489554
39.59052
40.538744
41.768998
42.83077
44.180239
45.373211
46.847392
48.181825
49.786278
51.272819
53.013123
54.662778
56.544507
58.368615
60.39736
62.40757
64.588915
66.797158
69.136685
71.555112
74.058384
76.699336
79.371885
82.247816
85.095126
88.218544
91.246065
94.629448
97.842553
101.49829
104.90232
108.8426
112.44279
116.67953
120.48102
125.02556
129.03322
133.89614
138.11431
143.30454
147.73623
153.26007
157.907
163.76485
168.616
31.963683
31.562246
31.118332
30.786349
30.411668
30.120862
29.793646
29.535891
29.247267
29.016081
28.761874
28.55468
28.328857
28.145604
27.947885
27.786281
27.613913
27.474852
27.328851
27.21283
27.093021
27.000031
26.906859
26.838473
26.773571
26.730585
26.694989
26.677828
26.672615
26.681124
26.706667
26.739847
26.795986
26.853487
26.940046
27.027861
27.149946
27.273028
27.434261
27.598011
27.802216
28.012531
28.26364
28.526868
28.828847
29.151749
29.508566
29.898365
30.314106
30.77861
31.25742
31.804852
32.350831
32.989846
33.607048
34.346731
35.039185
35.889065
36.660748
37.630779
38.48563
39.586201
40.53408
41.763884
42.825262
44.174225
45.366744
46.840358
48.174272
49.778093
51.264041
53.003641
54.652621
56.533569
58.356909
60.384789
62.394131
64.574521
66.781783
69.120258
71.53758
74.039694
76.679407
79.350685
82.225229
85.071147
88.193016
91.219016
94.600675
97.812119
101.46594
104.86816
108.80632
112.40454
116.63894
120.4383
124.98025
128.98559
133.84566
138.06133
143.24843
147.67741
153.19784
157.84184
163.69591
168.5437
31.963574
31.56228
31.118482
30.786553
30.411913
30.121127
29.793928
29.536183
29.247567
29.016386
28.762185
28.554994
28.329174
28.145923
27.948206
27.786604
27.614236
27.475174
27.329172
27.213149
27.093335
27.000341
26.907161
26.838767
26.773854
26.730855
26.695243
26.678064
26.672828
26.681316
26.706829
26.739981
26.796084
26.853553
26.940066
27.02784
27.149869
27.272898
27.434064
27.597746
27.80187
28.012103
28.263115
28.526243
28.828107
29.150888
29.507571
29.897222
30.312807
30.777135
31.255764
31.802988
32.348757
32.987526
33.604489
34.343882
35.036064
35.885606
36.656979
37.626618
38.481119
39.581236
40.52872
41.758003
42.818929
44.167309
45.359306
46.832267
48.165582
49.768674
51.253937
52.992725
54.640924
56.52097
58.343422
60.370302
62.378638
64.557921
66.764045
69.101298
71.517338
74.018105
76.656376
79.326173
82.199099
85.04339
88.163447
91.187664
94.567298
97.77679
101.42835
104.82844
108.76408
112.35997
116.59156
120.38837
124.9272
128.92975
133.78637
137.99897
143.18222
147.60784
153.12397
157.76425
163.61344
168.45689
31.963455
31.56234
31.118671
30.786806
30.412213
30.121452
29.794272
29.536538
29.247931
29.016756
28.762562
28.555374
28.329558
28.146309
27.948595
27.786994
27.614626
27.475563
27.329559
27.213533
27.093715
27.000714
26.907525
26.839121
26.774193
26.73118
26.695546
26.678347
26.673083
26.681544
26.707022
26.740141
26.796198
26.853627
26.940086
27.027809
27.149771
27.272735
27.43382
27.597421
27.801446
28.011579
28.262474
28.525479
28.827205
29.149837
29.506357
29.895831
30.311225
30.77534
31.253748
31.800719
32.346234
32.984704
33.601376
34.340418
35.032268
35.8814
36.652398
37.621559
38.475635
39.575199
40.522202
41.750853
42.811227
44.158897
45.350257
46.822422
48.155007
49.757209
51.241636
52.979432
54.626677
56.505618
58.326984
60.352639
62.35974
64.537666
66.742393
69.078143
71.492605
73.991712
76.628203
79.29617
82.167093
85.009369
88.127177
91.149177
94.526287
97.733341
101.38208
104.77948
108.71196
112.30489
116.53293
120.32648
124.86134
128.8603
133.71243
137.92104
143.09924
147.52041
153.0308
157.66604
163.50856
168.34609
31.963349
31.562428
31.118904
30.787107
30.412567
30.121832
29.794673
29.536951
29.248355
29.017187
28.762999
28.555815
28.330002
28.146757
27.949045
27.787444
27.615076
27.476013
27.330005
27.213976
27.094152
27.001144
26.907944
26.839528
26.774583
26.731552
26.695893
26.67867
26.673373
26.681804
26.707238
26.740318
26.796323
26.853706
26.940101
27.027764
27.149648
27.272536
27.433525
27.597032
27.800942
28.010958
28.261715
28.524578
28.826141
29.148601
29.50493
29.894195
30.309367
30.773233
31.251383
31.798059
32.343277
32.981398
33.59773
34.336362
35.027824
35.876477
36.647034
37.615637
38.469216
39.568132
40.51457
41.742481
42.802208
44.149045
45.339659
46.810889
48.142616
49.743772
51.227215
52.963843
54.609963
56.487604
58.307688
60.331895
62.337538
64.513856
66.716928
69.050898
71.463485
73.96062
76.594991
79.260778
82.129309
84.969175
88.084286
91.103624
94.477696
97.681808
101.32712
104.72127
108.64989
112.23922
116.46291
120.25246
124.78239
128.77687
133.6234
137.827
142.99879
147.41427
152.91725
157.54594
163.37969
168.20941
31.96327
31.56255
31.119187
30.787461
30.412977
30.122271
29.795134
29.537426
29.24884
29.017679
28.763498
28.556319
28.330509
28.147266
27.949557
27.787957
27.615589
27.476524
27.330513
27.214479
27.094648
27.001631
26.908418
26.839987
26.775022
26.731971
26.696284
26.679032
26.673697
26.682091
26.707477
26.740512
26.796455
26.853784
26.940105
27.027699
27.149491
27.272292
27.43317
27.596568
27.800345
28.010226
28.260824
28.523522
28.824898
29.147158
29.503267
29.892292
30.307207
30.770785
31.248637
31.79497
32.339847
32.977563
33.593503
34.331659
35.022674
35.870771
36.640819
37.608774
38.461777
39.559944
40.505728
41.732781
42.791756
44.137626
45.327374
46.797518
48.128247
49.728186
51.210484
52.945752
54.590561
56.466683
58.285269
60.307785
62.311723
64.486158
66.68729
69.019168
71.429552
73.924366
76.55624
79.219453
82.085155
84.922166
88.034078
91.05025
94.420703
97.621299
101.26252
104.65276
108.57674
112.16171
116.38012
120.16479
124.6887
128.67769
133.5173
137.71467
142.87845
147.28679
152.78038
157.40068
163.22316
168.04285
31.963206
31.562734
31.119527
30.787876
30.41345
30.122774
29.795659
29.537965
29.249392
29.018237
28.764064
28.556889
28.331083
28.147842
27.950136
27.788537
27.616167
27.4771
27.331084
27.215045
27.095206
27.002178
26.90895
26.840502
26.775514
26.732438
26.696718
26.679433
26.674054
26.682407
26.707734
26.740717
26.79659
26.853858
26.940093
27.027606
27.149294
27.271994
27.432744
27.596016
27.799639
28.009365
28.25978
28.522288
28.823448
29.145479
29.501333
29.890081
30.3047
30.767947
31.245457
31.791396
32.335877
32.973128
33.588615
34.326225
35.016723
35.864179
36.633641
37.60085
38.453188
39.550488
40.495517
41.721578
42.779686
44.124438
45.313183
46.78207
48.111643
49.710172
51.191141
52.924829
54.568116
56.442473
58.259317
60.279862
62.281811
64.454051
66.652916
68.982349
71.390154
73.882245
76.511188
79.171374
82.033747
84.867391
87.975522
90.987947
94.354106
97.550526
101.18687
104.57244
108.49085
112.07059
116.28264
120.06142
124.57801
128.56031
133.39146
137.58117
142.73505
147.13452
152.61637
157.22613
163.03437
167.84135
31.963078
31.56307
31.11999
30.788421
30.414061
30.123418
29.79633
29.538652
29.250092
29.018945
28.764782
28.557611
28.331808
28.148571
27.950868
27.789268
27.616896
27.477826
27.331805
27.215758
27.095907
27.002865
26.909616
26.841147
26.776128
26.73302
26.697256
26.679928
26.674491
26.682789
26.708042
26.740956
26.796737
26.853925
26.940048
27.027457
27.149008
27.271577
27.432162
27.595271
27.798694
28.008218
28.258396
28.520658
28.821537
29.14327
29.498796
29.887185
30.30142
30.764237
31.241303
31.786731
32.3307
32.967347
33.582246
34.319146
35.008973
35.855598
36.624297
37.590537
38.442011
39.538185
40.482232
41.707001
42.763979
44.107274
45.294711
46.761958
48.090023
49.686708
51.165942
52.897563
54.538856
56.410899
58.225458
60.243416
62.242751
64.412101
66.607979
68.934188
71.338585
73.827078
76.452137
79.108309
81.966258
84.795421
87.89851
90.905931
94.266341
97.457156
101.08693
104.46621
108.3771
111.94975
116.15314
119.92387
124.43045
128.40355
133.22301
137.40209
142.5422
146.92922
152.39457
156.98941
162.77742
167.56629
31.963129
31.563518
31.120539
30.789047
30.41475
30.12414
29.797077
29.539416
29.250869
29.019728
28.765575
28.558408
28.332608
28.149374
27.951674
27.790073
27.617699
27.478624
27.332595
27.216539
27.096675
27.003616
26.910343
26.841847
26.776792
26.733648
26.697834
26.680457
26.674953
26.683189
26.708355
26.741192
26.796867
26.853963
26.939959
27.027249
27.148645
27.271064
27.43146
27.594382
27.797578
28.006873
28.256779
28.518761
28.819322
29.140715
29.495867
29.883846
30.297644
30.759972
31.236532
31.781378
32.324764
32.960723
33.574953
34.311043
35.000105
35.845782
36.613611
37.578744
38.429232
39.524119
40.467044
41.690337
42.746022
44.087649
45.273589
46.738956
48.06529
49.659861
51.137099
52.866345
54.505343
56.374722
58.186647
60.201619
62.197935
64.363942
66.556363
68.878833
71.279276
73.763585
76.384123
79.035616
81.888397
84.712318
87.8095
90.811043
94.164688
97.348893
100.9709
104.34273
108.24469
111.80888
116.00193
119.76302
124.25756
128.21955
133.02486
137.19102
142.31429
146.68608
152.13109
156.70748
162.47037
167.23669
31.963514
31.564076
31.121181
30.78976
30.415522
30.124944
29.797905
29.54026
29.251725
29.020591
28.766449
28.559285
28.333487
28.150256
27.952559
27.790957
27.618577
27.479497
27.333459
27.217393
27.097514
27.004434
26.911133
26.842608
26.777512
26.734325
26.698453
26.681019
26.675439
26.683604
26.708672
26.74142
26.796975
26.853966
26.939816
27.026972
27.14819
27.27044
27.43062
27.59333
27.796268
28.005301
28.254901
28.516564
28.816762
29.137771
29.492497
29.880011
30.293314
30.755086
31.23107
31.775255
32.317978
32.953156
33.566625
34.301795
34.989988
35.834587
36.601426
37.5653
38.414664
39.508087
40.449733
41.671344
42.725555
44.06528
45.24951
46.712729
48.037086
49.629238
51.104194
52.83072
54.467089
56.333412
58.142312
60.153856
62.1467
64.308861
66.497299
68.815458
71.211334
73.690807
76.306114
78.952184
81.79897
84.616799
87.707106
90.701799
94.047546
97.22402
100.83694
104.20002
108.09146
111.64568
115.82652
119.57618
124.05641
128.00519
132.79359
136.94428
142.04733
146.40075
151.82118
156.37521
162.10761
166.84646
31.964209
31.564914
31.122089
30.790743
30.416569
30.126025
29.799012
29.541386
29.252865
29.021737
28.767608
28.560447
28.334651
28.151423
27.95373
27.792125
27.619738
27.48065
27.334598
27.218516
27.098616
27.005506
26.912166
26.843599
26.778445
26.735199
26.699246
26.681732
26.676046
26.684112
26.709043
26.741667
26.797054
26.853899
26.939548
27.026516
27.147489
27.269502
27.429384
27.5918
27.794379
28.003051
28.252224
28.513447
28.813143
29.133618
29.487756
29.874626
30.287241
30.748243
31.223431
31.7667
32.308505
32.942599
33.555014
34.288908
34.975896
35.818999
36.584464
37.54659
38.394395
39.485782
40.425651
41.644922
42.697082
44.034159
45.216007
46.676232
47.99783
49.586605
51.058371
52.781093
54.413783
56.275826
58.080487
60.087218
62.075184
64.231935
66.414764
68.726846
71.116278
73.588918
76.196822
78.835208
81.673484
84.482657
87.563176
90.5481
93.882562
97.047974
100.64785
103.99835
107.87465
111.41449
115.57765
119.31073
123.77016
127.69967
132.46336
136.59136
141.66468
145.99103
151.37511
155.89605
161.58321
166.28127
31.965009
31.565827
31.123035
30.791745
30.417621
30.127106
29.800113
29.542504
29.253993
29.022871
28.768755
28.561596
28.335801
28.152575
27.954885
27.793276
27.62088
27.481783
27.335717
27.219619
27.099695
27.006553
26.913171
26.84456
26.779345
26.736038
26.699999
26.682402
26.676606
26.684569
26.709356
26.741851
26.797062
26.853757
26.939196
27.025968
27.146685
27.268453
27.428025
27.590136
27.792343
28.000639
28.249371
28.510136
28.809312
29.129234
29.48276
29.868962
30.280864
30.741068
31.215429
31.757749
32.2986
32.93157
33.542891
34.27546
34.961196
35.802745
36.566783
37.527092
38.373275
39.462544
40.400563
41.617398
42.667421
44.001737
45.1811
46.638201
47.956916
49.542162
51.010592
52.729333
54.358169
56.215725
58.015937
60.017615
62.000453
64.151512
66.328433
68.634107
71.016736
73.482153
76.082224
78.712469
81.541717
84.341694
87.411799
90.386313
93.708732
96.862322
100.44823
103.78523
107.64526
111.16963
115.31371
119.02888
123.46579
127.3744
132.11121
136.2145
141.25542
145.55217
150.89646
155.38116
161.01868
165.67198
31.966145
31.56709
31.124309
30.793077
30.419007
30.128521
29.80155
29.54396
29.255461
29.024344
28.770245
28.563087
28.337291
28.154069
27.956383
27.794767
27.622358
27.483249
27.337161
27.22104
27.101084
27.007898
26.914456
26.845783
26.780486
26.737092
26.700935
26.683224
26.677274
26.685094
26.709684
26.742001
26.796972
26.853458
26.938609
27.025113
27.145479
27.26691
27.426056
27.587748
27.789444
27.997226
28.245351
28.505489
28.803951
29.123115
29.475804
29.861091
30.272015
30.731124
31.204351
31.745369
32.284913
32.916342
33.52616
34.256912
34.94093
35.780345
36.542423
37.500235
38.344188
39.430547
40.366022
41.579503
42.626585
43.957097
45.133035
46.585826
47.900565
49.480937
50.944757
52.657993
54.281495
56.132837
57.926882
59.92155
61.897268
64.040416
66.20912
68.50587
70.879016
73.334358
75.923487
78.542344
81.358951
84.146039
87.201525
90.1614
93.466875
96.603813
100.17
103.48794
107.32495
110.8274
114.94442
118.63415
123.03903
126.91788
131.61636
135.68436
140.67887
144.93321
150.22044
154.65313
160.21931
164.8083
31.967377
31.568453
31.125667
30.794487
30.420464
30.130006
29.803052
29.545482
29.256995
29.025881
28.771801
28.564643
28.338846
28.155627
27.957946
27.796321
27.623898
27.484774
27.338662
27.222514
27.102521
27.009284
26.915775
26.847032
26.78164
26.738149
26.70186
26.684019
26.677898
26.685558
26.709926
26.742042
26.796744
26.852997
26.937824
27.024029
27.144003
27.265056
27.423726
27.584949
27.786075
27.993281
28.240729
28.500166
28.797832
29.116149
29.467904
29.852167
30.261999
30.719885
31.191847
31.731409
32.269493
32.899199
33.50734
34.23606
34.918156
35.755185
36.515069
37.470087
38.311544
39.394642
40.327266
41.536987
42.580769
43.907012
45.079103
46.527051
47.837317
49.412205
50.870833
52.577866
54.195352
56.039678
57.826758
59.8135
61.781159
63.915348
66.074733
68.361354
70.723726
73.167615
75.744281
78.350155
81.152348
83.924726
86.963493
89.906621
93.192696
96.31054
99.854108
103.15014
106.96067
110.43785
114.52367
118.18401
122.55184
126.39617
131.05021
135.07723
140.01777
144.22275
149.44355
153.81576
159.29894
163.81309
31.968775
31.57006
31.127277
30.796165
30.4222
30.131774
29.804842
29.547298
29.258823
29.027714
28.77366
28.566502
28.340702
28.157489
27.959814
27.798177
27.625734
27.486591
27.340447
27.224265
27.104225
27.01092
26.917324
26.84849
26.782975
26.73936
26.702898
26.68489
26.678548
26.686002
26.710082
26.741942
26.796295
26.852248
26.936659
27.022478
27.141947
27.262515
27.420572
27.581193
27.781585
27.988052
28.234632