/*--------------------------------*- C++ -*----------------------------------*\
| =========                 |                                                 |
| \\      /  F ield         | OpenFOAM: The Open Source CFD Toolbox           |
|  \\    /   O peration     | Version:  2406                                  |
|   \\  /    A nd           | Website:  www.openfoam.com                      |
|    \\/     M anipulation  |                                                 |
\*---------------------------------------------------------------------------*/
FoamFile
{
    version     2.0;
    format      ascii;
    arch        "LSB;label=32;scalar=64";
    class       volVectorField;
    location    "0";
    object      U;
}
// * * * * * * * * * * * * * * * * * * * * * * * * * * * * * * * * * * * * * //

dimensions      [0 1 -1 0 0 0 0];

internalField   nonuniform List<vector> 
24384
(
(0.30835086 -0.00015454579 0)
(0.51023613 -0.00068913177 0)
(0.98231123 -0.00091839318 0)
(1.5834688 -0.00091681222 0)
(2.1963571 -0.00088607022 0)
(3.035588 -0.00082780127 0)
(3.7808838 -0.00075636081 0)
(4.6788673 -0.00064800167 0)
(5.4858648 -0.00053229525 0)
(6.2543678 -0.00039985699 0)
(6.9075486 -0.00026273191 0)
(7.3462768 -0.00015553586 0)
(7.6570736 -7.2551851e-05 0)
(7.7946607 -3.1407412e-05 0)
(1.0127291 -0.0015098968 0)
(1.6831066 -0.0053943037 0)
(2.9982461 -0.0066607448 0)
(4.4680848 -0.0062531841 0)
(5.813408 -0.005721789 0)
(7.4702626 -0.0049987286 0)
(8.815711 -0.0043398371 0)
(10.328305 -0.0035311785 0)
(11.617235 -0.0027888185 0)
(12.798133 -0.0020309543 0)
(13.77662 -0.0013037031 0)
(14.42302 -0.0007610791 0)
(14.876788 -0.00035159053 0)
(15.076798 -0.0001517007 0)
(1.8282574 -0.0050581018 0)
(2.8026505 -0.014821786 0)
(4.364696 -0.016450187 0)
(5.9521244 -0.014408506 0)
(7.3562995 -0.012649077 0)
(9.0686367 -0.010667966 0)
(10.460929 -0.0090797708 0)
(12.035317 -0.0072707695 0)
(13.385704 -0.0056850381 0)
(14.630557 -0.0041132441 0)
(15.667525 -0.002629868 0)
(16.355629 -0.0015323403 0)
(16.840208 -0.00070722184 0)
(17.054365 -0.00030529495 0)
(2.7047177 -0.010115632 0)
(3.6372232 -0.026467687 0)
(5.1135972 -0.027905371 0)
(6.686476 -0.024000018 0)
(8.1188963 -0.020889272 0)
(9.891238 -0.017491757 0)
(11.343795 -0.014827262 0)
(12.993359 -0.011833713 0)
(14.411968 -0.0092335949 0)
(15.722061 -0.0066727876 0)
(16.815 -0.0042646148 0)
(17.54146 -0.0024851894 0)
(18.053869 -0.0011475005 0)
(18.280613 -0.00049571856 0)
(3.6423542 -0.014961371 0)
(4.3731761 -0.038168119 0)
(5.7163203 -0.0403035 0)
(7.2641532 -0.03492191 0)
(8.7158863 -0.030447258 0)
(10.533617 -0.025487216 0)
(12.032283 -0.021589592 0)
(13.739338 -0.017216854 0)
(15.209946 -0.013426177 0)
(16.569535 -0.0097001344 0)
(17.704773 -0.006200448 0)
(18.460339 -0.0036150944 0)
(18.994069 -0.0016703614 0)
(19.230469 -0.00072196747 0)
(4.7361471 -0.018675976 0)
(5.2026391 -0.049395234 0)
(6.371674 -0.054057288 0)
(7.8637382 -0.047784937 0)
(9.3119856 -0.041918004 0)
(11.150264 -0.035181456 0)
(12.677042 -0.029825078 0)
(14.423111 -0.023792029 0)
(15.930974 -0.018555237 0)
(17.327021 -0.013407483 0)
(18.493841 -0.0085736795 0)
(19.271525 -0.0050022577 0)
(19.821768 -0.0023132099 0)
(20.065644 -0.0010000754 0)
(5.9249129 -0.020549837 0)
(6.1479075 -0.058358396 0)
(7.1000489 -0.067641276 0)
(8.4979024 -0.061474715 0)
(9.9161105 -0.054405575 0)
(11.746582 -0.045864816 0)
(13.280728 -0.038952149 0)
(15.044416 -0.031108143 0)
(16.572555 -0.024275002 0)
(17.99019 -0.017547337 0)
(19.176424 -0.011226916 0)
(19.968212 -0.0065553919 0)
(20.529331 -0.0030339731 0)
(20.778072 -0.0013115401 0)
(7.3400074 -0.021025469 0)
(7.3801714 -0.064923782 0)
(8.0333618 -0.081442391 0)
(9.2750805 -0.07700579 0)
(10.62683 -0.069039792 0)
(12.416953 -0.058593427 0)
(13.936758 -0.049908814 0)
(15.696828 -0.039938935 0)
(17.229099 -0.031200859 0)
(18.654674 -0.022569425 0)
(19.849363 -0.014450061 0)
(20.648137 -0.0084451455 0)
(21.215144 -0.0039120168 0)
(21.466342 -0.0016900235 0)
(8.9298396 -0.021135377 0)
(8.9021539 -0.067322883 0)
(9.2008086 -0.093173609 0)
(10.211833 -0.092957478 0)
(11.450645 -0.084877185 0)
(13.161277 -0.072720901 0)
(14.641345 -0.062199499 0)
(16.372688 -0.049919729 0)
(17.889549 -0.039062873 0)
(19.306125 -0.028284489 0)
(20.495419 -0.018123964 0)
(21.291991 -0.010602841 0)
(21.858277 -0.0049154142 0)
(22.108681 -0.0021205395 0)
(10.662855 -0.022544557 0)
(10.66778 -0.067271792 0)
(10.674852 -0.10076298 0)
(11.363853 -0.10812354 0)
(12.428757 -0.10131835 0)
(14.010734 -0.087993163 0)
(15.421566 -0.075690877 0)
(17.095972 -0.060988079 0)
(18.575712 -0.047831386 0)
(19.964353 -0.034677938 0)
(21.132553 -0.022241129 0)
(21.916356 -0.013024815 0)
(22.474187 -0.0060418767 0)
(22.719906 -0.0026001963 0)
(12.624624 -0.024059105 0)
(12.766575 -0.065338735 0)
(12.623096 -0.10324139 0)
(12.889321 -0.12079945 0)
(13.683293 -0.11808951 0)
(15.058078 -0.10476539 0)
(16.356014 -0.090891987 0)
(17.934007 -0.07365525 0)
(19.347338 -0.057948631 0)
(20.682867 -0.042084018 0)
(21.809055 -0.02701911 0)
(22.565899 -0.015839653 0)
(23.104764 -0.0073496275 0)
(23.340391 -0.003149994 0)
(14.761352 -0.026916639 0)
(14.916451 -0.069969323 0)
(14.971251 -0.099720191 0)
(14.845235 -0.12730439 0)
(15.261598 -0.13218843 0)
(16.325799 -0.1213362 0)
(17.453992 -0.10665491 0)
(18.887372 -0.087144389 0)
(20.199532 -0.068860306 0)
(21.452409 -0.050116234 0)
(22.512043 -0.032210953 0)
(23.225105 -0.018901508 0)
(23.732322 -0.0087673446 0)
(23.951242 -0.0037332613 0)
(17.032017 -0.029605003 0)
(17.150034 -0.074787442 0)
(17.39721 -0.10191154 0)
(17.269379 -0.12500792 0)
(17.239921 -0.14033048 0)
(17.866715 -0.13579184 0)
(18.750737 -0.12182468 0)
(19.978965 -0.10076502 0)
(21.148633 -0.080108886 0)
(22.284711 -0.058465741 0)
(23.249899 -0.037619838 0)
(23.900185 -0.022092395 0)
(24.361323 -0.010234444 0)
(24.555911 -0.0043158082 0)
(19.405685 -0.032296334 0)
(19.515312 -0.08102092 0)
(19.7443 -0.1073382 0)
(19.946976 -0.12234088 0)
(19.676112 -0.13964074 0)
(19.749063 -0.14557414 0)
(20.294585 -0.13492989 0)
(21.23982 -0.11369717 0)
(22.216951 -0.091183956 0)
(23.196373 -0.066798674 0)
(24.035361 -0.043035772 0)
(24.601618 -0.025286031 0)
(25.000551 -0.011684481 0)
(25.162216 -0.0048588624 0)
(22.125167 -0.035261516 0)
(22.217138 -0.087399001 0)
(22.416631 -0.11717723 0)
(22.741535 -0.12631525 0)
(22.805451 -0.13231263 0)
(22.351868 -0.1460897 0)
(22.392936 -0.14400977 0)
(22.899616 -0.12553639 0)
(23.583379 -0.10225308 0)
(24.329059 -0.075387199 0)
(24.981957 -0.048661348 0)
(25.424963 -0.028599041 0)
(25.732266 -0.013149425 0)
(25.845297 -0.0053372044 0)
(24.76683 -0.037986257 0)
(24.84242 -0.09331073 0)
(25.007617 -0.12608833 0)
(25.273267 -0.13646627 0)
(25.578895 -0.13311972 0)
(25.372177 -0.13568211 0)
(24.902707 -0.14189524 0)
(24.835667 -0.13149177 0)
(25.131961 -0.10995546 0)
(25.573083 -0.08189583 0)
(25.989805 -0.053045286 0)
(26.278421 -0.031178999 0)
(26.470914 -0.014210837 0)
(26.523049 -0.0055712668 0)
(27.295496 -0.04033432 0)
(27.35368 -0.098548411 0)
(27.483305 -0.13429048 0)
(27.696909 -0.14600237 0)
(27.936107 -0.14153961 0)
(28.201036 -0.12927094 0)
(27.756047 -0.12955232 0)
(27.075453 -0.12870287 0)
(26.887329 -0.11268041 0)
(26.946698 -0.085512558 0)
(27.073515 -0.055675027 0)
(27.176369 -0.032715853 0)
(27.231059 -0.01473172 0)
(27.210291 -0.0054550645 0)
(30.008388 -0.04255023 0)
(30.045086 -0.10317807 0)
(30.129143 -0.14226918 0)
(30.27405 -0.15562244 0)
(30.45034 -0.15130876 0)
(30.695032 -0.13407376 0)
(30.795468 -0.11723569 0)
(30.106803 -0.11100666 0)
(29.285261 -0.10460483 0)
(28.774197 -0.082958402 0)
(28.479187 -0.054981355 0)
(28.316318 -0.032372197 0)
(28.174806 -0.014161806 0)
(28.048966 -0.0045950565 0)
(32.00809 -0.043887763 0)
(32.024978 -0.10593903 0)
(32.066166 -0.14657577 0)
(32.147608 -0.16210788 0)
(32.250061 -0.15774269 0)
(32.397779 -0.13941264 0)
(32.523785 -0.11794355 0)
(32.404947 -0.095979956 0)
(31.558608 -0.085691106 0)
(30.545029 -0.071963793 0)
(29.826875 -0.049455172 0)
(29.396391 -0.029217012 0)
(29.05528 -0.012173014 0)
(28.820763 -0.0029355726 0)
(33.631334 -0.043865595 0)
(33.619546 -0.10656399 0)
(33.603204 -0.14893625 0)
(33.597855 -0.16449932 0)
(33.605127 -0.16127378 0)
(33.623405 -0.14271184 0)
(33.640917 -0.12039949 0)
(33.659821 -0.089910949 0)
(33.453819 -0.065248238 0)
(32.554818 -0.049294189 0)
(31.468089 -0.035439867 0)
(30.724475 -0.02116752 0)
(30.135419 -0.0074838297 0)
(29.760416 0.00045591171 0)
(34.151043 -0.042047198 0)
(34.120826 -0.10274494 0)
(34.069387 -0.14565369 0)
(34.013878 -0.16230719 0)
(33.96938 -0.15948213 0)
(33.925434 -0.14142787 0)
(33.89802 -0.11939255 0)
(33.875438 -0.089429173 0)
(33.853402 -0.059052415 0)
(33.622458 -0.032359831 0)
(32.856167 -0.016732033 0)
(31.972019 -0.0084696878 0)
(31.180928 -3.6576781e-05 0)
(30.673476 0.0055600442 0)
(34.193072 -0.039400649 0)
(34.165026 -0.098056141 0)
(34.109621 -0.14042279 0)
(34.048128 -0.15785465 0)
(33.9981 -0.1560245 0)
(33.947817 -0.13933921 0)
(33.91625 -0.11809816 0)
(33.889998 -0.088442658 0)
(33.875173 -0.058551206 0)
(33.865042 -0.02761956 0)
(33.7106 -0.0023454276 0)
(33.147451 0.0078587841 0)
(32.301116 0.011427999 0)
(31.679142 0.013450656 0)
(34.19377 -0.036948625 0)
(34.168199 -0.09267718 0)
(34.116345 -0.13453619 0)
(34.057273 -0.15302384 0)
(34.008516 -0.15236619 0)
(33.959038 -0.13690534 0)
(33.927643 -0.11647099 0)
(33.901445 -0.087574845 0)
(33.886919 -0.058060359 0)
(33.882424 -0.027481715 0)
(33.88056 0.00075827294 0)
(33.76131 0.018051405 0)
(33.245199 0.024238059 0)
(32.631899 0.023698269 0)
(34.194486 -0.034296812 0)
(34.171411 -0.0870069 0)
(34.123415 -0.12816054 0)
(34.066955 -0.14736365 0)
(34.019681 -0.14809075 0)
(33.970944 -0.13412094 0)
(33.939698 -0.11463664 0)
(33.913434 -0.086562419 0)
(33.898726 -0.057650883 0)
(33.893967 -0.02740741 0)
(33.899154 0.0006725914 0)
(33.90795 0.020436735 0)
(33.806679 0.033011243 0)
(33.451707 0.034628666 0)
(34.195165 -0.031650212 0)
(34.174568 -0.081100637 0)
(34.130552 -0.12126624 0)
(34.077077 -0.14134304 0)
(34.031453 -0.14337186 0)
(33.983593 -0.13095364 0)
(33.952547 -0.1125027 0)
(33.926266 -0.08539592 0)
(33.911354 -0.057155659 0)
(33.906311 -0.027334582 0)
(33.911154 0.00036698599 0)
(33.922812 0.019972153 0)
(33.934582 0.034822448 0)
(33.873688 0.040866448 0)
(34.195807 -0.028979668 0)
(34.177664 -0.074971599 0)
(34.137717 -0.1138962 0)
(34.087631 -0.13468255 0)
(34.043773 -0.13807135 0)
(33.997019 -0.12738543 0)
(33.966257 -0.11012759 0)
(33.939928 -0.084025995 0)
(33.924862 -0.056528334 0)
(33.919486 -0.027378931 0)
(33.923877 2.2633827e-05 0)
(33.935441 0.019664525 0)
(33.952383 0.034399721 0)
(33.967222 0.041717929 0)
(34.196396 -0.026341499 0)
(34.180591 -0.06875045 0)
(34.144755 -0.10613032 0)
(34.098307 -0.1274843 0)
(34.056475 -0.1322326 0)
(34.011017 -0.12335145 0)
(33.980632 -0.10738074 0)
(33.954339 -0.082457906 0)
(33.939093 -0.055829113 0)
(33.933375 -0.027294523 0)
(33.93736 -0.00033009397 0)
(33.948348 0.019071902 0)
(33.965039 0.03392274 0)
(33.980696 0.041317538 0)
(34.196942 -0.023708358 0)
(34.183381 -0.062390356 0)
(34.151707 -0.097915975 0)
(34.109174 -0.11964083 0)
(34.06966 -0.12572982 0)
(34.025741 -0.11877136 0)
(33.99586 -0.10422433 0)
(33.969671 -0.080643099 0)
(33.95425 -0.054986057 0)
(33.948164 -0.027194151 0)
(33.951641 -0.00074292783 0)
(33.962233 0.018532477 0)
(33.97853 0.033317971 0)
(33.993967 0.040747971 0)
(34.19742 -0.021220802 0)
(34.185874 -0.056237987 0)
(34.158177 -0.089659725 0)
(34.11963 -0.11149096 0)
(34.082631 -0.11879775 0)
(34.040495 -0.11377162 0)
(34.011251 -0.10073273 0)
(33.985238 -0.078592151 0)
(33.969678 -0.054017428 0)
(33.963211 -0.027053341 0)
(33.966163 -0.0011602155 0)
(33.976261 0.017890656 0)
(33.992186 0.032672053 0)
(34.007392 0.040157612 0)
(34.197865 -0.018724819 0)
(34.188235 -0.049948366 0)
(34.164523 -0.080914668 0)
(34.130238 -0.10255546 0)
(34.096114 -0.1109982 0)
(34.056124 -0.10800037 0)
(34.027717 -0.096635465 0)
(34.002 -0.076150809 0)
(33.986327 -0.052832425 0)
(33.979452 -0.026848996 0)
(33.981808 -0.0016256293 0)
(33.991347 0.017171804 0)
(34.006809 0.031902013 0)
(34.02179 0.039456479 0)
(34.198231 -0.016499242 0)
(34.190204 -0.044248068 0)
(34.170001 -0.072696871 0)
(34.139743 -0.093830708 0)
(34.108536 -0.10315461 0)
(34.070858 -0.10202194 0)
(34.043432 -0.092308652 0)
(34.018127 -0.073523617 0)
(34.0024 -0.051522817 0)
(33.995138 -0.026579566 0)
(33.996895 -0.002081254 0)
(34.005852 0.01642241 0)
(34.020821 0.031090916 0)
(34.035539 0.038702938 0)
(34.198577 -0.01422316 0)
(34.192085 -0.038341796 0)
(34.175392 -0.063900993 0)
(34.149439 -0.08412996 0)
(34.121577 -0.094164061 0)
(34.086717 -0.094951456 0)
(34.060585 -0.087083191 0)
(34.035901 -0.07028494 0)
(34.020191 -0.049861092 0)
(34.012519 -0.026188444 0)
(34.013587 -0.002587134 0)
(34.02185 0.01553472 0)
(34.036219 0.030104834 0)
(34.050611 0.037776603 0)
(34.198841 -0.012334864 0)
(34.193534 -0.033385752 0)
(34.179657 -0.056288971 0)
(34.157395 -0.075395143 0)
(34.132622 -0.085794631 0)
(34.100547 -0.088135105 0)
(34.075794 -0.081923051 0)
(34.051853 -0.067009243 0)
(34.036251 -0.048127432 0)
(34.028236 -0.025725169 0)
(34.028663 -0.0030382249 0)
(34.036253 0.014673923 0)
(34.050018 0.029120296 0)
(34.064074 0.03683763 0)
(34.199097 -0.010348665 0)
(34.194945 -0.028124115 0)
(34.183908 -0.047989146 0)
(34.165601 -0.065502589 0)
(34.144384 -0.075987148 0)
(34.115744 -0.079846246 0)
(34.092827 -0.075480542 0)
(34.069979 -0.062809537 0)
(34.054631 -0.04583033 0)
(34.046277 -0.025038618 0)
(34.045955 -0.0035355798 0)
(34.052719 0.013616752 0)
(34.065715 0.027870058 0)
(34.079332 0.03562496 0)
(34.199277 -0.0088304533 0)
(34.195942 -0.024069587 0)
(34.186966 -0.04143934 0)
(34.171699 -0.057405611 0)
(34.153413 -0.067673767 0)
(34.127819 -0.072538743 0)
(34.106655 -0.06963521 0)
(34.08495 -0.05888538 0)
(34.069952 -0.043608282 0)
(34.061377 -0.024303742 0)
(34.060428 -0.0039213138 0)
(34.066456 0.012671875 0)
(34.078738 0.026708008 0)
(34.091937 0.034476372 0)
(34.199456 -0.0071771596 0)
(34.19694 -0.01962431 0)
(34.190081 -0.034110133 0)
(34.178094 -0.048034617 0)
(34.16319 -0.057708037 0)
(34.141379 -0.063406146 0)
(34.122569 -0.062094117 0)
(34.102536 -0.053650594 0)
(34.088163 -0.040529815 0)
(34.079434 -0.023183475 0)
(34.077753 -0.0043214613 0)
(34.082848 0.011468436 0)
(34.094185 0.02515634 0)
(34.10681 0.032908376 0)
(34.199574 -0.005991402 0)
(34.197597 -0.016417663 0)
(34.19216 -0.028728561 0)
(34.182475 -0.040940674 0)
(34.170097 -0.04990311 0)
(34.151328 -0.055944505 0)
(34.13456 -0.055723986 0)
(34.116103 -0.049066992 0)
(34.102411 -0.03772678 0)
(34.093675 -0.022071182 0)
(34.091449 -0.0045674421 0)
(34.095774 0.010462409 0)
(34.106288 0.023786442 0)
(34.118396 0.031489795 0)
(34.199688 -0.0047378687 0)
(34.198234 -0.013011863 0)
(34.1942 -0.0229284 0)
(34.186869 -0.033091653 0)
(34.177218 -0.040991451 0)
(34.161971 -0.047057812 0)
(34.147755 -0.047867126 0)
(34.131433 -0.043187592 0)
(34.11879 -0.033977923 0)
(34.110222 -0.020455766 0)
(34.107433 -0.0047374726 0)
(34.110833 0.0092310268 0)
(34.120295 0.021995934 0)
(34.131711 0.029581962 0)
(34.199763 -0.0038262103 0)
(34.198658 -0.010525116 0)
(34.195571 -0.018640162 0)
(34.189881 -0.02715454 0)
(34.182225 -0.034054032 0)
(34.169731 -0.03985121 0)
(34.157659 -0.041266298 0)
(34.143278 -0.038042135 0)
(34.131699 -0.030553843 0)
(34.123439 -0.018863774 0)
(34.120283 -0.0047515421 0)
(34.122936 0.0082015088 0)
(34.131479 0.020381772 0)
(34.142261 0.027807466 0)
(34.19983 -0.0029441653 0)
(34.199034 -0.0081112953 0)
(34.196796 -0.014434499 0)
(34.192616 -0.021218639 0)
(34.186869 -0.026939655 0)
(34.177176 -0.03216854 0)
(34.167445 -0.033974457 0)
(34.15535 -0.032107928 0)
(34.14516 -0.026423096 0)
(34.137453 -0.016796715 0)
(34.134039 -0.0045957284 0)
(34.135909 0.0070660811 0)
(34.143395 0.018433341 0)
(34.153406 0.025587205 0)
(34.199876 -0.002274232 0)
(34.199295 -0.0062730354 0)
(34.197654 -0.011204513 0)
(34.194558 -0.016586555 0)
(34.190231 -0.021266106 0)
(34.182732 -0.025823504 0)
(34.174954 -0.027745286 0)
(34.164912 -0.026818461 0)
(34.156089 -0.022573646 0)
(34.149053 -0.014735451 0)
(34.145567 -0.004295169 0)
(34.14682 0.0060930893 0)
(34.153369 0.016588464 0)
(34.162648 0.023402257 0)
(34.199912 -0.0016918688 0)
(34.199503 -0.0046715126 0)
(34.198342 -0.0083703078 0)
(34.196131 -0.012466962 0)
(34.192996 -0.016124058 0)
(34.187431 -0.019884919 0)
(34.181478 -0.021721164 0)
(34.173495 -0.021476922 0)
(34.166169 -0.018503125 0)
(34.160002 -0.012407112 0)
(34.156623 -0.0038096429 0)
(34.157355 0.0051415723 0)
(34.162967 0.014560902 0)
(34.171457 0.020894589 0)
(34.199939 -0.0012306551 0)
(34.199655 -0.0034010441 0)
(34.198845 -0.0061093702 0)
(34.197292 -0.0091452742 0)
(34.195063 -0.011914106 0)
(34.191024 -0.014889237 0)
(34.186586 -0.016504811 0)
(34.180422 -0.016663225 0)
(34.174529 -0.014672807 0)
(34.169308 -0.010082094 0)
(34.1662 -0.0032060721 0)
(34.166564 0.0042936231 0)
(34.171354 0.012531019 0)
(34.1791 0.018270415 0)
(34.199958 -0.00087300735 0)
(34.199762 -0.0024142967 0)
(34.199204 -0.0043453235 0)
(34.198125 -0.0065298385 0)
(34.196563 -0.0085553797 0)
(34.193686 -0.010806371 0)
(34.190452 -0.012125891 0)
(34.185823 -0.012463546 0)
(34.181233 -0.011185808 0)
(34.176975 -0.0078432963 0)
(34.174268 -0.0025288664 0)
(34.174423 0.0035326193 0)
(34.178537 0.010491683 0)
(34.185593 0.015504362 0)
(34.199972 -0.00057831952 0)
(34.199843 -0.0016003198 0)
(34.199474 -0.0028850492 0)
(34.198757 -0.0043494998 0)
(34.197711 -0.0057267632 0)
(34.195755 -0.0073003045 0)
(34.193514 -0.0082806943 0)
(34.190206 -0.0086512989 0)
(34.186814 -0.0078999455 0)
(34.183532 -0.005634503 0)
(34.181328 -0.0017985385 0)
(34.181408 0.0027868191 0)
(34.184951 0.0082831651 0)
(34.191352 0.012392518 0)
(34.199981 -0.0003738438 0)
(34.199893 -0.0010348942 0)
(34.199641 -0.0018678735 0)
(34.199149 -0.0028221222 0)
(34.198427 -0.0037277107 0)
(34.197064 -0.0047823362 0)
(34.195479 -0.0054641911 0)
(34.19309 -0.0057739142 0)
(34.190573 -0.005336693 0)
(34.188065 -0.0038430342 0)
(34.186331 -0.0011807996 0)
(34.186439 0.0021133139 0)
(34.189608 0.0062072143 0)
(34.195515 0.0093667217 0)
(34.199988 -0.00019335748 0)
(34.199929 -0.00053540931 0)
(34.199762 -0.00096722374 0)
(34.199435 -0.001463933 0)
(34.198952 -0.0019387849 0)
(34.198031 -0.0025001129 0)
(34.196945 -0.0028740505 0)
(34.19528 -0.0030659177 0)
(34.193478 -0.0028625501 0)
(34.191645 -0.0020736151 0)
(34.190373 -0.00058983627 0)
(34.190572 0.001292954 0)
(34.193468 0.0037106637 0)
(34.198959 0.0056323859 0)
(34.19999 -7.0490591e-05 0)
(34.199945 -0.00019480307 0)
(34.199814 -0.00035167929 0)
(34.199557 -0.0005323745 0)
(34.199176 -0.00070560669 0)
(34.198446 -0.00091162051 0)
(34.197581 -0.0010507037 0)
(34.196238 -0.0011253345 0)
(34.194759 -0.0010539014 0)
(34.193256 -0.00076780675 0)
(34.192199 -0.00019131837 0)
(34.192507 0.00051304773 0)
(34.195288 0.0014503672 0)
(34.200583 0.0022055831 0)
(7.8542189 -6.984347e-06 1.0207567e-26)
(7.8591876 8.9956882e-07 -2.4178972e-28)
(7.8469294 6.1296525e-06 1.8994921e-26)
(7.8279289 8.5678018e-06 -2.7782899e-26)
(7.8008492 9.9634324e-06 -4.3462241e-26)
(7.7775548 1.0398188e-05 8.5682461e-26)
(7.7503842 1.0513783e-05 8.6922956e-26)
(7.728662 1.0394118e-05 -9.4333906e-26)
(7.7047025 1.007694e-05 8.0161723e-26)
(7.6858181 9.8146232e-06 -5.1151327e-26)
(7.665464 9.4250098e-06 -7.0063538e-26)
(7.6494504 9.088956e-06 -4.1155737e-27)
(7.6323948 8.7326643e-06 1.3474934e-25)
(7.6188418 8.4283694e-06 -1.7736345e-25)
(7.6045166 8.0904177e-06 1.9389951e-25)
(7.5930767 7.8261673e-06 6.1750031e-27)
(7.580992 7.5270444e-06 -5.1169903e-25)
(7.5712326 7.3420585e-06 2.2401369e-25)
(7.5608807 7.1480106e-06 1.0055207e-25)
(7.5524559 7.0065753e-06 5.936878e-25)
(7.5434502 6.8885106e-06 -9.3733438e-25)
(7.5360739 6.8043908e-06 1.5732446e-25)
(7.5280606 6.7954735e-06 3.3858869e-25)
(7.5214491 6.8090416e-06 3.4004023e-26)
(7.5141217 6.8992222e-06 -1.3673064e-25)
(7.5080525 7.0181429e-06 -8.78064e-25)
(7.5011632 7.2089429e-06 1.1320123e-24)
(7.4954616 7.4279791e-06 -2.164513e-24)
(7.4888022 7.7544146e-06 9.3356562e-25)
(7.4833314 8.0536036e-06 9.1208783e-25)
(7.4767418 8.5188946e-06 1.4999474e-24)
(7.4714034 8.9270962e-06 -3.2250354e-25)
(7.4648171 9.5106477e-06 -1.0919895e-24)
(7.4594566 1.0036895e-05 6.0469996e-25)
(7.452699 1.0757516e-05 -6.2655377e-25)
(7.4468137 1.1438962e-05 -1.3822424e-24)
(7.439572 1.2338945e-05 8.2327363e-25)
(7.4330267 1.3200826e-05 2.3725188e-24)
(7.4251802 1.4299488e-05 -1.921247e-24)
(7.4178333 1.5377664e-05 -2.016384e-25)
(7.409252 1.6694313e-05 -1.3467956e-24)
(7.4009415 1.803021e-05 1.4288606e-24)
(7.3914979 1.9608861e-05 -2.7132894e-25)
(7.3820539 2.1228194e-05 7.4617123e-25)
(7.3716214 2.3081214e-05 -6.2855738e-26)
(7.3608577 2.5047123e-05 7.8414863e-25)
(7.3493044 2.7204019e-05 -4.185511e-25)
(7.3370298 2.9559096e-05 -2.5623732e-24)
(7.3242263 3.2070364e-05 3.5305828e-24)
(7.3102225 3.4876453e-05 -4.9531413e-24)
(7.2960329 3.7772356e-05 1.6223119e-24)
(7.2800723 4.1092498e-05 -3.5181177e-25)
(7.264362 4.4417231e-05 5.053352e-24)
(7.2462002 4.8327834e-05 -2.8566749e-24)
(7.2288322 5.2129745e-05 -2.6009003e-25)
(7.2082079 5.6707514e-05 7.2625601e-25)
(7.1890426 6.1029199e-05 -1.374911e-24)
(7.1656758 6.6381126e-05 4.7375464e-25)
(7.1445709 7.1281333e-05 1.5661858e-24)
(7.1181618 7.7500762e-05 -1.9591179e-24)
(7.0949712 8.3042217e-05 8.4988092e-24)
(7.065199 9.026187e-05 -8.4174435e-24)
(7.0396106 9.6555849e-05 -2.2639941e-24)
(7.0064579 0.00010480956 3.2474404e-24)
(6.9778681 0.00011204257 2.8789663e-24)
(6.9415372 0.00012136214 -1.9524955e-24)
(6.9094073 0.00012972687 5.13187e-24)
(6.8696677 0.00014022164 -6.2906159e-24)
(6.8336438 0.0001498806 -2.0861427e-24)
(6.7902502 0.0001616869 -1.6992485e-24)
(6.7499488 0.00017282111 6.8235882e-25)
(6.7026407 0.00018608453 6.0861456e-24)
(6.6576485 0.00019890129 -9.4242552e-26)
(6.6061478 0.00021378858 -1.1065296e-23)
(6.556016 0.00022852344 7.1102513e-24)
(6.5000237 0.00024520851 4.6619004e-24)
(6.4442661 0.00026210162 -5.7828801e-24)
(6.3834596 0.00028083787 2.6915431e-24)
(6.3215451 0.00030024554 -3.8814937e-25)
(6.2555744 0.00032120232 -7.5084543e-24)
(6.1869265 0.0003433725 1.0988919e-23)
(6.1154081 0.00036693556 8.9928984e-24)
(6.0393918 0.00039236731 -4.5307506e-23)
(5.9619055 0.00041873099 4.0780126e-23)
(5.877825 0.00044786776 -1.3354364e-23)
(5.7939043 0.00047743896 9.524981e-25)
(5.7009898 0.00051079245 6.4713849e-24)
(5.6101127 0.00054399727 1.3071354e-25)
(5.5075074 0.00058222812 1.7704824e-23)
(5.4090851 0.00061955957 -2.9654199e-23)
(5.295826 0.00066347488 1.389333e-23)
(5.1891845 0.00070552292 1.1929204e-23)
(5.0641827 0.00075579275 -1.0065543e-23)
(4.9485404 0.00080336225 -1.2134327e-25)
(4.8105383 0.00086150571 3.686152e-23)
(4.6849787 0.00091545205 -7.3398434e-23)
(4.5325229 0.00098238013 1.9239063e-23)
(4.3959536 0.0010438845 5.2655963e-23)
(4.2273229 0.001121698 -9.4218944e-23)
(4.078428 0.0011921849 9.6244492e-23)
(3.8915703 0.0012830139 -2.0899941e-23)
(3.7287397 0.0013642634 -3.8075476e-23)
(3.5211746 0.0014709011 -2.0156281e-23)
(3.3424637 0.0015659249 3.3728096e-23)
(3.1110083 0.001693113 4.4050118e-24)
(2.9132256 0.001829594 -3.104652e-23)
(15.163368 -3.3467892e-05 2.2793981e-26)
(15.170041 5.0543587e-06 -2.320449e-26)
(15.150856 3.0830933e-05 -7.1624417e-27)
(15.121494 4.3119309e-05 -3.1180583e-26)
(15.079332 5.0483903e-05 1.454805e-25)
(15.042642 5.3077213e-05 -2.1785419e-25)
(14.999285 5.4182869e-05 7.4311118e-26)
(14.96411 5.4033296e-05 1.1218858e-25)
(14.924723 5.3120646e-05 -1.9480928e-25)
(14.893172 5.2184585e-05 -5.0787364e-25)
(14.858624 5.0739939e-05 1.066084e-24)
(14.830962 4.94733e-05 -3.6085858e-25)
(14.801023 4.813057e-05 4.504954e-25)
(14.77682 4.6972612e-05 -2.9156938e-25)
(14.750819 4.5655201e-05 -4.6465992e-25)
(14.729695 4.4633601e-05 -4.3256938e-25)
(14.707032 4.3593844e-05 9.1809929e-25)
(14.688447 4.2884964e-05 -5.4566052e-26)
(14.668459 4.2198795e-05 6.0307808e-25)
(14.651978 4.1731771e-05 -1.4281197e-24)
(14.634154 4.1359197e-05 -3.3618472e-27)
(14.619404 4.1211577e-05 2.2048327e-24)
(14.60326 4.1330805e-05 -2.4164074e-24)
(14.589859 4.160541e-05 2.0553041e-24)
(14.574962 4.2194273e-05 -2.8612495e-24)
(14.562613 4.291151e-05 -2.1029339e-25)
(14.548612 4.4011462e-05 1.8669504e-24)
(14.537063 4.5198829e-05 -1.8328542e-24)
(14.52365 4.689385e-05 1.8630488e-24)
(14.51271 4.8500073e-05 1.4623597e-24)
(14.499648 5.0821128e-05 6.9820049e-26)
(14.489173 5.2932417e-05 -3.187992e-24)
(14.476387 5.5860036e-05 1.0139434e-24)
(14.466099 5.8476974e-05 2.8770285e-24)
(14.453284 6.2063153e-05 -3.7499333e-24)
(14.442262 6.5434216e-05 -4.2913529e-25)
(14.428873 6.9862221e-05 3.0678144e-24)
(14.41693 7.41092e-05 -1.7907056e-24)
(14.402788 7.9490122e-05 -6.6956428e-26)
(14.389718 8.4781045e-05 3.3596126e-24)
(14.374639 9.1231126e-05 -4.0820941e-24)
(14.360215 9.7751765e-05 5.190338e-25)
(14.344011 0.00010543206 -1.2589384e-24)
(14.327989 0.00011335016 8.9538036e-25)
(14.31047 0.00012236969 -8.7181307e-25)
(14.292589 0.00013193179 -5.42339e-26)
(14.273569 0.00014243473 2.5571742e-24)
(14.253547 0.00015389091 -3.470844e-24)
(14.23283 0.00016610277 2.4193533e-24)
(14.210356 0.00017974887 5.061082e-24)
(14.187742 0.000193836 -7.6022457e-24)
(14.162485 0.00020999106 7.7477465e-24)
(14.137774 0.00022616837 -7.1511856e-24)
(14.109379 0.00024520493 7.3006718e-24)
(14.082363 0.00026370862 -7.5983289e-24)
(14.050446 0.00028603758 5.6680147e-24)
(14.020915 0.00030711363 -9.2258964e-24)
(13.985063 0.00033322798 6.3753374e-24)
(13.952801 0.00035716816 -8.5995588e-24)
(13.91257 0.00038759433 7.9692404e-24)
(13.87735 0.00041472063 -5.8482516e-24)
(13.832262 0.00045009314 6.9561274e-24)
(13.793606 0.00048096507 7.4732969e-24)
(13.743634 0.00052155981 -3.7206129e-24)
(13.700626 0.00055714623 -1.1866946e-23)
(13.646065 0.00060308248 4.3996308e-24)
(13.597887 0.00064438627 -7.6807565e-24)
(13.538371 0.00069630529 1.9433515e-23)
(13.484477 0.00074418474 8.8133383e-24)
(13.419611 0.00080282332 -1.1473397e-23)
(13.359407 0.00085825395 -6.3877392e-25)
(13.288766 0.0009244348 -2.2905851e-23)
(13.2216 0.000988545 9.064407e-24)
(13.144722 0.001063213 4.0382049e-24)
(13.069878 0.0011373105 1.3535338e-23)
(12.98626 0.0012215378 -2.9609775e-23)
(12.902948 0.0013070939 1.4309583e-23)
(12.812034 0.0014022016 2.5296768e-23)
(12.719379 0.0015010716 -8.562105e-24)
(12.620554 0.001608395 -1.4510068e-23)
(12.517583 0.0017224814 -4.0300842e-24)
(12.410159 0.0018439279 1.0382397e-23)
(12.29578 0.001975841 1.8890661e-24)
(12.17898 0.0021132019 -1.0630505e-23)
(12.051964 0.0022658208 -7.1528548e-24)
(11.924906 0.0024215738 4.6542041e-23)
(11.783855 0.0025983484 -6.8102999e-23)
(11.645521 0.0027753806 3.6739648e-23)
(11.488829 0.0029806033 2.1100593e-23)
(11.338031 0.0031824587 -7.6021681e-23)
(11.16383 0.0034214547 6.9470517e-23)
(10.999162 0.0036524992 -6.4672635e-24)
(10.805255 0.0039314808 6.1698345e-23)
(10.625025 0.0041974234 -8.1713245e-23)
(10.408771 0.004525425 3.1540591e-23)
(10.210906 0.0048333684 5.7610878e-23)
(9.9690905 0.0052205154 -3.4564313e-23)
(9.7510081 0.0055799313 5.3485205e-23)
(9.4796248 0.0060411911 -1.9477376e-22)
(9.2380393 0.006464687 1.4582495e-22)
(8.9319942 0.0070192799 1.9377101e-23)
(8.6626271 0.0075237963 -1.7548508e-22)
(8.315283 0.0081986956 -7.5422391e-23)
(8.0124877 0.0088111558 1.8705776e-22)
(7.6147323 0.0096490157 -1.4444152e-22)
(7.2696995 0.010499518 4.8173231e-22)
(17.147317 -6.7238828e-05 -1.7485451e-26)
(17.154445 1.0846068e-05 2.0723819e-25)
(17.133678 6.3387145e-05 -4.0647986e-25)
(17.101868 8.8785186e-05 5.4322082e-25)
(17.056065 0.00010439631 -1.5614287e-25)
(17.016084 0.00011023919 -2.2151115e-25)
(16.968688 0.00011317056 1.8163287e-25)
(16.930105 0.00011343109 -6.362007e-25)
(16.886749 0.00011228964 6.3611317e-25)
(16.851894 0.0001108863 1.3569909e-25)
(16.813591 0.00010854517 4.6283251e-25)
(16.782805 0.00010645627 -1.3736511e-24)
(16.749369 0.00010424993 7.4549842e-25)
(16.722242 0.00010232892 9.3717809e-25)
(16.692999 0.00010010737 -1.1431533e-24)
(16.669158 9.8402728e-05 -6.0744767e-25)
(16.643502 9.6749044e-05 8.0906456e-25)
(16.6224 9.5615558e-05 -1.5031262e-24)
(16.599645 9.4569689e-05 2.5231885e-24)
(16.580834 9.391027e-05 -1.3168593e-24)
(16.560448 9.3446394e-05 -5.7077223e-25)
(16.543547 9.3424299e-05 3.0281189e-24)
(16.525025 9.3908281e-05 -2.5049683e-24)
(16.509635 9.4693024e-05 3.1307701e-24)
(16.492518 9.6089542e-05 -2.7619178e-24)
(16.478327 9.771071e-05 -4.799086e-25)
(16.462245 0.00010013105 -1.5066919e-24)
(16.448989 0.00010267471 3.020072e-24)
(16.433611 0.00010623892 -3.009046e-24)
(16.421086 0.00010961992 -1.0414018e-24)
(16.406159 0.00011440163 3.259652e-24)
(16.394213 0.00011877213 -1.9532942e-24)
(16.379663 0.00012477867 1.1180297e-24)
(16.367983 0.0001301184 7.8550447e-25)
(16.35347 0.00013742816 -1.3188834e-24)
(16.341021 0.00014427605 -2.1308404e-24)
(16.325938 0.00015324369 1.9365344e-24)
(16.312523 0.00016184663 1.9322547e-24)
(16.296681 0.00017271939 8.3179157e-25)
(16.282081 0.00018340181 1.9536962e-24)
(16.265283 0.00019641074 -4.1665826e-25)
(16.249263 0.00020954337 -1.2299903e-23)
(16.23131 0.00022498989 1.195005e-23)
(16.213609 0.00024093356 -2.4630236e-25)
(16.1943 0.00025905493 -3.8128398e-24)
(16.174643 0.0002782529 -8.903094e-25)
(16.153782 0.00029935413 -4.6961467e-24)
(16.131872 0.00032235186 1.8782023e-23)
(16.109249 0.00034685325 -1.2892096e-23)
(16.084759 0.00037422754 1.1603026e-23)
(16.060163 0.00040248253 -1.5928552e-23)
(16.032743 0.00043488044 1.1247069e-23)
(16.005961 0.0004673166 -1.567702e-23)
(15.975237 0.00050548272 4.5033755e-24)
(15.94605 0.00054257393 9.6656635e-24)
(15.911619 0.00058734754 -8.1043718e-24)
(15.879804 0.0006296025 -3.2184097e-24)
(15.84123 0.00068195781 1.61307e-24)
(15.806558 0.00072996189 1.2417729e-23)
(15.763375 0.00079098305 9.4745202e-24)
(15.725609 0.00084538898 -1.6780011e-23)
(15.677312 0.00091634024 -9.808008e-24)
(15.635946 0.00097827288 2.0012953e-24)
(15.582518 0.0010597563 8.9199397e-24)
(15.536576 0.0011311856 9.3799056e-24)