/*--------------------------------*- C++ -*----------------------------------*\
| =========                 |                                                 |
| \\      /  F ield         | OpenFOAM: The Open Source CFD Toolbox           |
|  \\    /   O peration     | Version:  2406                                  |
|   \\  /    A nd           | Website:  www.openfoam.com                      |
|    \\/     M anipulation  |                                                 |
\*---------------------------------------------------------------------------*/
FoamFile
{
    version     2.0;
    format      ascii;
    arch        "LSB;label=32;scalar=64";
    class       volVectorField;
    location    "0";
    object      wallShearStress;
}
// * * * * * * * * * * * * * * * * * * * * * * * * * * * * * * * * * * * * * //

dimensions      [0 2 -2 0 0 0 0];

internalField   uniform (0 0 0);

boundaryField
{
    inlet
    {
        type            calculated;
        value           uniform (0 0 0);
    }
    topWall
    {
        type            symmetry;
    }
    jet
    {
        type            calculated;
        value           uniform (0 0 0);
    }
    outlet
    {
        type            calculated;
        value           uniform (0 0 0);
    }
    bottomWall
    {
        type            calculated;
        value           nonuniform List<vector> 
254
(
(-0.049582866 7.2835542e-07 0)
(-0.080611571 8.3596863e-06 0)
(-0.15924841 1.1475871e-05 0)
(-0.26197855 1.1558032e-05 0)
(-0.36797197 1.1229475e-05 0)
(-0.51632409 1.0614467e-05 0)
(-0.65197223 9.8294737e-06 0)
(-0.82124775 8.581542e-06 0)
(-0.97916311 7.1855549e-06 0)
(-1.1351762 5.5008277e-06 0)
(-1.2719877 3.6751518e-06 0)
(-1.3661977 2.2001386e-06 0)
(-1.4340152 1.0358908e-06 0)
(-1.4643379 4.480463e-07 0)
(-1.4775188 6.0146599e-08 2.6610145e-26)
(-1.4786643 -1.1757637e-07 4.3746275e-26)
(-1.4760579 -2.6858038e-07 -7.559917e-26)
(-1.4719804 -3.5814697e-07 0)
(-1.4661857 -4.3489634e-07 -9.034884e-26)
(-1.4612285 -4.856847e-07 1.042421e-25)
(-1.4554832 -5.3684156e-07 -3.1879819e-26)
(-1.450924 -5.750783e-07 1.9838586e-25)
(-1.4459337 -6.0125028e-07 -1.8419832e-25)
(-1.4420325 -6.3467372e-07 -3.2368896e-26)
(-1.437863 -6.624287e-07 -1.425363e-25)
(-1.4346135 -6.8346786e-07 5.9268113e-25)
(-1.4311819 -7.0216969e-07 -4.2830788e-25)
(-1.428481 -7.1586883e-07 4.7278058e-26)
(-1.4256526 -7.3242111e-07 1.5389608e-25)
(-1.423416 -7.4410027e-07 -2.6895495e-25)
(-1.4210746 -7.3618863e-07 -1.6413132e-25)
(-1.4192008 -7.417607e-07 2.3323752e-25)
(-1.4172299 -7.3530187e-07 0)
(-1.4156387 -7.2245586e-07 0)
(-1.4139499 -7.066078e-07 0)
(-1.4125753 -6.7293713e-07 -6.4221251e-25)
(-1.4110884 -6.3376262e-07 2.3193846e-25)
(-1.4098659 -5.8181263e-07 4.6818207e-25)
(-1.4085126 -5.1669098e-07 0)
(-1.4073912 -4.4572461e-07 0)
(-1.406116 -3.3854303e-07 0)
(-1.4050572 -2.2638697e-07 0)
(-1.4038144 -7.520128e-08 0)
(-1.4027876 6.9813998e-08 0)
(-1.4015422 2.6205511e-07 1.1708871e-24)
(-1.4005254 4.4607922e-07 -1.2332794e-24)
(-1.3992613 6.899161e-07 1.2278595e-24)
(-1.3982242 9.0567054e-07 -1.2552294e-24)
(-1.3969059 1.2036256e-06 0)
(-1.3957482 1.4828629e-06 0)
(-1.3943116 1.8451085e-06 0)
(-1.3930021 2.1916918e-06 -2.6022331e-24)
(-1.3914208 2.6296575e-06 2.6602401e-24)
(-1.3899284 3.0633323e-06 0)
(-1.3881726 3.5934861e-06 0)
(-1.3864601 4.1272894e-06 0)
(-1.3845017 4.7536272e-06 0)
(-1.3825312 5.4084878e-06 -7.334154e-25)
(-1.3803427 6.1526444e-06 -2.3038243e-25)
(-1.3780718 6.94196e-06 1.91303e-24)
(-1.3756231 7.8102243e-06 -1.0779393e-26)
(-1.3730097 8.7591977e-06 -9.4108378e-25)
(-1.3702729 9.7732271e-06 0)
(-1.3672678 1.0906506e-05 0)
(-1.3642129 1.2077905e-05 0)
(-1.3607658 1.3421649e-05 0)
(-1.3573637 1.476673e-05 0)
(-1.3534206 1.6349479e-05 0)
(-1.3496418 1.7886439e-05 0)
(-1.3451456 1.974491e-05 0)
(-1.3409606 2.149532e-05 0)
(-1.3358503 2.3660141e-05 0)
(-1.3312291 2.5642324e-05 0)
(-1.3254402 2.8157378e-05 0)
(-1.3203525 3.0394249e-05 0)
(-1.3138164 3.330036e-05 0)
(-1.308196 3.5827663e-05 0)
(-1.3009118 3.9147101e-05 0)
(-1.2946292 4.2039829e-05 0)
(-1.2866456 4.5757905e-05 0)
(-1.2795861 4.9083431e-05 0)
(-1.2708574 5.3241967e-05 0)
(-1.2629486 5.705636e-05 -9.2736906e-24)
(-1.2534274 6.1694396e-05 9.4804124e-24)
(-1.2445916 6.6047596e-05 -8.4726793e-24)
(-1.2342287 7.1209925e-05 5.0497436e-24)
(-1.2243838 7.6169148e-05 1.6508445e-23)
(-1.2131277 8.1898746e-05 -8.7145275e-24)
(-1.2021861 8.7525751e-05 -1.8043633e-24)
(-1.189983 9.3874242e-05 -8.8621538e-24)
(-1.1778519 0.00010025706 6.2581366e-24)
(-1.1646451 0.00010726353 0)
(-1.151225 0.00011445427 1.3585165e-23)
(-1.1369547 0.00012219179 -2.8141809e-23)
(-1.1221406 0.00013031306 1.457155e-23)
(-1.106743 0.00013881183 1.6478027e-23)
(-1.0904217 0.00014792664 -9.3015202e-25)
(-1.0738293 0.00015727146 -1.6269978e-23)
(-1.0558805 0.00016747725 0)
(-1.0380201 0.0001777178 0)
(-1.0183144 0.00018912688 -9.5053999e-24)
(-0.99910653 0.00020033404 -2.0113025e-23)
(-0.97750425 0.00021304201 4.1848759e-23)
(-0.95686179 0.000225274 2.1828941e-23)
(-0.93321043 0.00023938576 -4.7656791e-23)
(-0.91103604 0.00025273123 9.5363059e-24)
(-0.88516889 0.00026842157 4.3345789e-24)
(-0.8613519 0.00028292137 0)
(-0.83308057 0.00030021238 -2.575644e-23)
(-0.80749397 0.00031596403 -1.7123287e-23)
(-0.77660853 0.00033508032 4.4422661e-23)
(-0.74910315 0.0003521333 0)
(-0.71535976 0.00037308508 -2.5371382e-23)
(-0.68575932 0.00039144531 7.9838497e-23)
(-0.64887625 0.00041432541 -8.7971514e-23)
(-0.61696772 0.00043402813 -3.0423452e-23)
(-0.57661435 0.00045876795 -4.1004362e-24)
(-0.54215486 0.00047961369 -2.3882817e-24)
(-0.49789902 0.00050616287 7.5130077e-23)
(-0.46037233 0.00052810436 8.200904e-23)
(-0.42168181 0.00053752616 -1.5374983e-22)
(-0.3985069 0.00052165404 -1.3676696e-22)
(-0.3701593 0.00050770533 1.8350558e-22)
(-0.34287645 0.00049407391 -5.8e-28)
(-0.31475718 0.00047927042 -4.6738102e-23)
(-0.28369405 0.000462086 0)
(-0.25589739 0.00044591413 0)
(-0.2206139 0.00042361253 0)
(-0.19108444 0.0004034856 0)
(-0.15527803 0.00038064987 0)
(-0.1207408 0.00035553507 0)
(-0.088403338 0.00032145428 -8.145623e-23)
(-0.04792566 0.00028766576 8.1456762e-23)
(0.0003423807 0.00028069452 0)
(0.69541189 -0.00069363176 0)
(0.69875558 -0.00076935941 0)
(0.69596235 -0.00080169694 0)
(0.69024886 -0.00082302266 0)
(0.68343921 -0.00083667289 0)
(0.67483817 -0.00084784234 0)
(0.66584602 -0.00085616673 0)
(0.65599002 -0.00086210758 0)
(0.64429776 -0.00086660428 0)
(0.63331044 -0.00086880511 0)
(0.62029631 -0.00086926917 0)
(0.60618145 -0.00086832242 0)
(0.59246893 -0.00086561123 0)
(0.57801349 -0.00086110463 0)
(0.5595318 -0.00085282942 0)
(0.54358418 -0.00084373654 1.4903096e-24)
(0.52345879 -0.00083007931 3.6988084e-23)
(0.50665981 -0.0008172415 -3.7881991e-23)
(0.48593643 -0.00079972406 0)
(0.46837066 -0.00078375534 0)
(0.44720163 -0.00076301163 0)
(0.42902418 -0.00074381963 0)
(0.40750157 -0.00071975941 0)
(0.38877926 -0.00069797571 0)
(0.36707919 -0.00067128623 0)
(0.34782565 -0.00064705531 0)
(0.32598246 -0.00061890987 0)
(0.30625521 -0.00059284416 0)
(0.28429682 -0.00056349181 0)
(0.26413732 -0.00053623139 0)
(0.24220721 -0.000506266 0)
(0.22177188 -0.00047815092 0)
(0.2000594 -0.00044834509 0)
(0.17944621 -0.000420183 0)
(0.1580559 -0.00039115881 0)
(0.1373993 -0.00036339133 0)
(0.11650672 -0.0003356012 0)
(0.095989798 -0.00030865958 0)
(0.075737191 -0.00028244188 0)
(0.055502463 -0.00025683385 0)
(0.036022693 -0.00023275616 -1.5511488e-23)
(0.016167304 -0.00020878538 1.5279827e-23)
(-0.0024717075 -0.00018664319 0)
(-0.021827161 -0.00016461999 0)
(-0.039534347 -0.00014520488 0)
(-0.058267309 -0.00012513545 1.5129951e-23)
(-0.074957734 -0.00010788057 -1.4903925e-23)
(-0.093002385 -8.9982792e-05 0)
(-0.10868039 -7.5029384e-05 0)
(-0.12603185 -5.9384201e-05 0)
(-0.14076857 -4.6479651e-05 2.3259609e-23)
(-0.15750024 -3.2589261e-05 -2.2912162e-23)
(-0.171429 -2.1828271e-05 0)
(-0.18779279 -1.0296813e-05 0)
(-0.20128837 -1.6412278e-06 0)
(-0.21784337 8.0778576e-06 0)
(-0.23153754 1.55325e-05 0)
(-0.24892221 2.3414615e-05 0)
(-0.2636417 2.9003953e-05 0)
(-0.28175562 3.4698489e-05 0)
(-0.29717218 3.8581181e-05 0)
(-0.31536407 4.2654406e-05 0)
(-0.331052 4.5519339e-05 0)
(-0.34894782 4.8307055e-05 0)
(-0.36470063 5.0447272e-05 0)
(-0.38215271 5.2409086e-05 0)
(-0.39789869 5.3801777e-05 0)
(-0.41483281 5.4913801e-05 0)
(-0.43046148 5.5548979e-05 0)
(-0.44677791 5.5846382e-05 -1.1040356e-23)
(-0.46221848 5.5830141e-05 1.0875439e-23)
(-0.47790729 5.5632225e-05 0)
(-0.49314642 5.5180942e-05 0)
(-0.50817798 5.4592852e-05 0)
(-0.52314382 5.3641879e-05 -1.7820356e-24)
(-0.53748286 5.2620236e-05 5.5120457e-25)
(-0.55215339 5.1468338e-05 1.1862234e-24)
(-0.56582 5.0223392e-05 0)
(-0.58017468 4.8795903e-05 -1.7984198e-24)
(-0.59315218 4.7420635e-05 1.1036427e-24)
(-0.60714908 4.5862053e-05 -1.1176834e-24)
(-0.61944466 4.4402624e-05 1.2945337e-24)
(-0.63308201 4.2717263e-05 -3.7878745e-24)
(-0.64471278 4.125943e-05 3.898264e-24)
(-0.65796411 3.9549405e-05 2.7001934e-25)
(-0.66893012 3.8060149e-05 0)
(-0.68179471 3.6383178e-05 0)
(-0.69214059 3.5007385e-05 0)
(-0.70711571 3.2735804e-05 0)
(-0.72100997 3.0634195e-05 0)
(-0.73828993 2.8106539e-05 0)
(-0.75299004 2.6019488e-05 0)
(-0.77050935 2.3637415e-05 4.6789719e-25)
(-0.78571586 2.1548066e-05 -3.1637453e-25)
(-0.80318939 1.9236751e-05 -6.7051363e-25)
(-0.81855161 1.7246437e-05 5.2077992e-25)
(-0.8357153 1.5101946e-05 0)
(-0.85090755 1.3265612e-05 0)
(-0.86753657 1.1366034e-05 0)
(-0.88226121 9.783355e-06 3.1308899e-25)
(-0.89812801 8.1921637e-06 -2.9067652e-25)
(-0.91212121 6.903287e-06 0)
(-0.92705669 5.7054091e-06 -7.128348e-26)
(-0.94010828 4.7540219e-06 4.0244139e-26)
(-0.95395173 3.83929e-06 2.4079889e-26)
(-0.96592341 3.1416241e-06 0)
(-0.97862683 2.490381e-06 0)
(-0.98944376 1.9795054e-06 0)
(-1.0009384 1.6130181e-06 0)
(-1.0106046 1.290659e-06 0)
(-1.0210075 1.034144e-06 3.1215182e-26)
(-1.0296011 8.2359248e-07 -2.8980643e-26)
(-1.0389318 7.2572939e-07 0)
(-1.0466072 6.3359168e-07 0)
(-1.0552568 5.3080938e-07 0)
(-1.0622931 4.6536307e-07 -9.1179926e-27)
(-1.0703965 3.7934455e-07 8.4652785e-27)
(-1.0770773 3.4917336e-07 0)
(-1.0856142 2.7086606e-07 0)
(-1.0939479 1.7589488e-07 0)
)
;
    }
    hump
    {
        type            calculated;
        value           nonuniform List<vector> 
240
(
(-1.5104499 -0.93757178 3.1439691e-17)
(-1.7386694 -1.0478644 -2.7066069e-17)
(-1.9618653 -1.1441499 -5.2198138e-17)
(-2.1700047 -1.2013265 -3.208404e-17)
(-2.3325365 -1.1912577 -3.5133346e-17)
(-2.4183663 -1.1539792 -8.0649602e-17)
(-2.526664 -1.1452728 -7.2595332e-17)
(-2.6410812 -1.1395899 3.2583052e-17)
(-2.7574028 -1.1348723 3.7952358e-17)
(-2.8787971 -1.1486456 -4.4033336e-17)
(-3.0040846 -1.1913072 -2.4834271e-17)
(-2.8794338 -1.0916149 9.0189823e-25)
(-3.0251505 -1.0763491 8.5234159e-24)
(-3.0510015 -1.0105333 -1.3359334e-16)
(-3.0859692 -0.96715627 -4.1254771e-17)
(-3.1193639 -0.92232772 -4.9278515e-22)
(-3.1431025 -0.87537727 -6.8244301e-22)
(-3.1535875 -0.82767495 1.5533882e-17)
(-3.1583911 -0.77329256 1.6927751e-16)
(-3.1579219 -0.72595095 1.7006699e-16)
(-3.1601437 -0.68793981 5.9302423e-17)
(-3.1632432 -0.65222123 -7.2109946e-17)
(-3.1666141 -0.6183092 -1.381398e-16)
(-3.170299 -0.58412184 1.5071248e-32)
(-3.1753499 -0.54608815 -1.6024729e-16)
(-3.1830361 -0.51849028 6.9733894e-17)
(-3.2032022 -0.49562288 4.1256521e-17)
(-3.2321281 -0.46793485 -1.0785648e-16)
(-3.2504452 -0.43895087 -5.177093e-17)
(-3.2671313 -0.40933413 -8.0299082e-17)
(-3.2803588 -0.37853733 -7.6232706e-17)
(-3.2957173 -0.34253371 -8.8403456e-17)
(-3.3029743 -0.30737749 -5.137406e-17)
(-3.3102282 -0.26496452 2.0653726e-17)
(-3.3147857 -0.22630021 -1.0300734e-17)
(-3.3081802 -0.18775419 1.5519079e-17)
(-3.3080834 -0.15441541 2.3787802e-17)
(-3.2957485 -0.11473757 -1.4822011e-17)
(-3.2731422 -0.081194771 -8.3238385e-18)
(-3.2576824 -0.050988432 -3.9524615e-18)
(-3.2408743 -0.021251378 2.9685091e-18)
(-3.2187075 0.0096516021 -7.915743e-19)
(-3.1914226 0.036916322 6.101864e-19)
(-3.1692385 0.061512446 6.0185357e-19)
(-3.1498421 0.087789987 -6.0658887e-18)
(-3.1143653 0.11379757 -5.3064391e-18)
(-3.0799494 0.13592738 -1.5342718e-18)
(-3.0567347 0.15688791 1.0307955e-18)
(-3.0288476 0.18012809 8.4438262e-18)
(-2.9888238 0.20172495 1.7958384e-23)
(-2.9435469 0.22164707 -7.9229357e-23)
(-2.8950714 0.24139436 -9.2608866e-18)
(-2.8518583 0.25762076 9.5242148e-23)
(-2.8080105 0.2727838 -1.9336182e-22)
(-2.7590034 0.28841956 7.3703475e-18)
(-2.7143033 0.3012885 2.6540097e-17)
(-2.6699658 0.31328164 1.1856519e-17)
(-2.6216541 0.32566163 -2.0546086e-17)
(-2.5807155 0.33626714 -8.4986102e-18)
(-2.5354932 0.34707083 -1.0330263e-17)
(-2.4804853 0.35758265 1.8240964e-37)
(-2.4259298 0.3660977 2.6980253e-34)
(-2.3588592 0.37378036 -1.4227204e-37)
(-2.2920262 0.3788058 5.8269845e-18)
(-2.227421 0.38223319 -1.4162718e-17)
(-2.1606896 0.38438413 3.4983538e-18)
(-2.1064958 0.38555609 4.8656816e-18)
(-2.0457635 0.38574111 -1.5914364e-17)
(-2.0036401 0.38656505 -4.5121314e-18)
(-1.9632936 0.38865453 1.7660887e-22)
(-1.9211075 0.39107973 -6.7716566e-18)
(-1.856952 0.39167253 -9.2697319e-18)
(-1.7838739 0.39011339 -2.3298948e-18)
(-1.6838677 0.38415018 3.9487339e-18)
(-1.5833676 0.37509355 -4.5310637e-18)
(-1.4440591 0.35795375 -1.4263077e-17)
(-1.3080357 0.33652385 1.3020034e-21)
(-1.1198181 0.30015346 -2.0189835e-18)
(-0.87881507 0.24440824 -3.9121228e-19)
(-0.76438297 0.20720611 7.2350016e-18)
(0.15387956 -0.025293657 0)
(0.44255446 -0.17100261 -1.5084895e-17)
(0.43222108 -0.17329476 -4.4657416e-19)
(0.51320401 -0.21245692 2.6599936e-17)
(0.47236193 -0.20330033 -1.1269779e-17)
(0.49419537 -0.22114135 -7.1968111e-19)
(0.47329128 -0.22055187 -1.1392889e-17)
(0.46849329 -0.22725377 -1.1635493e-17)
(0.44391824 -0.22449602 -6.7253179e-19)
(0.42188202 -0.22206491 -1.0287146e-17)
(0.39134412 -0.21435045 9.5107457e-18)
(0.36408425 -0.20698416 4.3203141e-19)
(0.33449914 -0.19690135 1.9522613e-17)
(0.30915335 -0.18778337 -9.3099516e-18)
(0.28404102 -0.17740558 -4.2044669e-20)
(0.2626211 -0.16857399 -2.9280207e-19)
(0.24207428 -0.15954349 -8.8942365e-18)
(0.22343519 -0.15039265 5.237847e-22)
(0.20741636 -0.14257273 -1.795485e-18)
(0.19269517 -0.13545319 -1.7970416e-17)
(0.17899024 -0.12806378 -1.2280111e-17)
(0.16772237 -0.12225941 1.751704e-17)
(0.15718408 -0.11665137 1.3518413e-17)
(0.14771097 -0.11133867 4.3117963e-18)
(0.13976938 -0.10696042 7.1801198e-18)
(0.13223306 -0.10270531 -2.2473505e-17)
(0.12562631 -0.098803974 -1.480866e-17)
(0.11947164 -0.095105526 9.6736977e-18)
(0.11353723 -0.091329528 7.3006569e-18)
(0.10840285 -0.088079878 1.5974354e-17)
(0.10285045 -0.08433542 -1.6290987e-18)
(0.097771241 -0.080684786 2.367943e-18)
(0.093109391 -0.077437359 5.357454e-18)
(0.087935709 -0.073540553 -1.0592416e-17)
(0.083327633 -0.069952244 -3.8121735e-18)
(0.07896498 -0.06654887 1.196398e-17)
(0.075016422 -0.06343555 2.0856708e-18)
(0.071136611 -0.060387745 1.345412e-17)
(0.067289043 -0.057247053 2.7445598e-17)
(0.064154635 -0.05472865 1.4683575e-18)
(0.060827031 -0.052015105 1.1790221e-17)
(0.057415604 -0.049101154 -2.5906698e-22)
(0.054439106 -0.046509937 8.4754862e-18)
(0.051108948 -0.043597071 1.699808e-17)
(0.047941289 -0.040705556 1.2417395e-17)
(0.045322803 -0.038303955 6.1201226e-18)
(0.042788846 -0.035988841 2.1619374e-18)
(0.041007366 -0.034320654 4.4703331e-18)
(0.039351225 -0.032839773 -9.5883995e-18)
(0.038222674 -0.03175519 -2.4416757e-18)
(0.03740734 -0.031076609 1.1440131e-17)
(0.036702491 -0.030398445 -8.9257117e-19)
(0.036488014 -0.030226507 -2.1627783e-17)
(0.036370444 -0.030069408 -5.3484418e-18)
(0.036724741 -0.030357588 -9.8182951e-18)
(0.036642068 -0.030233963 1.4877548e-17)
(0.036795425 -0.03024697 -1.1493915e-17)
(0.037216448 -0.030445793 -1.0504583e-17)
(0.037899208 -0.030843063 -2.6764574e-22)
(0.038369512 -0.03104098 5.2907009e-22)
(0.038953611 -0.031220983 1.9425907e-17)
(0.040304711 -0.032026401 -2.0338393e-17)
(0.041168884 -0.032369082 -4.0626246e-17)
(0.042615142 -0.033102875 3.9921416e-22)
(0.04478418 -0.034411154 -7.0506273e-18)
(0.046844976 -0.035599107 -1.3225497e-17)
(0.049658797 -0.037287685 1.1365837e-17)
(0.052755913 -0.039189531 8.5973429e-18)
(0.056618185 -0.041566132 -1.9193102e-22)
(0.060566674 -0.044042197 -5.4214191e-22)
(0.064230993 -0.046123312 -1.8796262e-17)
(0.069462534 -0.049266446 1.8633003e-17)
(0.07362435 -0.051586803 -5.0380607e-18)
(0.078049861 -0.053970926 -1.3816161e-17)
(0.082186904 -0.055998253 6.0034355e-23)
(0.087195328 -0.058521081 1.1703001e-17)
(0.092142382 -0.060913791 -7.1929202e-18)
(0.096757432 -0.062936002 1.170042e-17)
(0.10166354 -0.06495147 3.8341913e-17)
(0.10766806 -0.067481301 1.7625286e-17)
(0.1132538 -0.069700552 9.6596127e-18)
(0.11875737 -0.071719192 1.8444134e-17)
(0.12481324 -0.073932703 -1.0365897e-17)
(0.13036326 -0.075684007 1.3445987e-22)
(0.13690041 -0.077856609 1.3828185e-17)
(0.1428801 -0.079583604 3.2758428e-18)
(0.14949682 -0.081313506 -1.6833765e-17)
(0.15559622 -0.082609836 -3.6899469e-18)
(0.16328067 -0.084674399 -1.2908487e-17)
(0.16922383 -0.085703444 4.6746359e-24)
(0.17585451 -0.086774934 3.2584626e-22)
(0.18289575 -0.087988156 1.2741483e-17)
(0.19024993 -0.089123523 -2.6568702e-17)
(0.19709387 -0.089718382 -2.0981368e-18)
(0.20519042 -0.090589176 3.5798619e-18)
(0.21249876 -0.091187834 1.7953796e-17)
(0.22080515 -0.09179508 8.4275073e-18)
(0.22971086 -0.092386819 1.3545213e-17)
(0.24033597 -0.093077107 -3.1089881e-17)
(0.25022074 -0.093761582 -1.0372262e-17)
(0.26008369 -0.094399384 -2.162033e-22)
(0.27080004 -0.095288245 1.31867e-17)
(0.27999688 -0.095156198 -1.3332397e-17)
(0.29045042 -0.095337488 3.6002433e-18)
(0.30001461 -0.095377792 1.119205e-17)
(0.30864024 -0.09488785 7.3060399e-18)
(0.31921422 -0.095008799 1.655579e-17)
(0.32958873 -0.095132977 6.5030589e-18)
(0.34016283 -0.095239627 1.0852693e-17)
(0.35053888 -0.095286526 4.731871e-18)
(0.36141337 -0.09522476 2.058612e-17)
(0.3707563 -0.09500569 1.1291829e-17)
(0.38013256 -0.094660901 3.6007879e-34)
(0.38958331 -0.094305356 4.3665802e-18)
(0.39904408 -0.093996704 1.2153104e-17)
(0.40843286 -0.093600385 -9.9907492e-25)
(0.41913363 -0.093126012 8.9224587e-22)
(0.4284349 -0.092705699 1.4170537e-22)
(0.43730933 -0.092317371 1.0128957e-17)
(0.44652324 -0.09199415 1.4943785e-17)
(0.4564335 -0.091928647 4.4962096e-18)
(0.46647466 -0.092059628 -1.5150216e-17)
(0.47483759 -0.091789819 -1.5194617e-17)
(0.48545757 -0.091497918 4.6918813e-22)
(0.49360217 -0.091199188 -1.2762567e-17)
(0.50148888 -0.090794327 -5.5418584e-18)
(0.50981565 -0.090529051 -7.1625862e-18)
(0.51799488 -0.090294999 -1.5733537e-17)
(0.52502415 -0.089833015 -1.6990652e-17)
(0.53246353 -0.089026135 -3.183192e-17)
(0.54057493 -0.088560572 -3.939335e-18)
(0.5486619 -0.088362545 -1.0879136e-17)
(0.55565341 -0.088036465 -9.4463283e-19)
(0.5617684 -0.087518492 1.1994485e-17)
(0.56794214 -0.086891184 -2.4151139e-23)
(0.57800093 -0.086921171 -5.0108177e-22)
(0.58399892 -0.08650862 6.8470996e-18)
(0.58932717 -0.085915744 -1.8105345e-18)
(0.59580565 -0.085583043 -5.1221591e-18)
(0.60305144 -0.085514936 1.2786578e-18)
(0.6088706 -0.085182779 8.3700472e-18)
(0.61412427 -0.084274204 6.8106124e-19)
(0.61979086 -0.08385652 5.7348694e-18)
(0.62469541 -0.083315216 1.0687471e-18)
(0.62879091 -0.082594044 -8.4798033e-18)
(0.63277646 -0.081617844 -8.505584e-18)
(0.63791631 -0.08056155 -5.3960602e-19)
(0.64177164 -0.07969731 -6.0715974e-24)
(0.64516456 -0.078751384 3.5830286e-18)
(0.64860361 -0.077804994 5.9908586e-18)
(0.65431011 -0.076971223 -8.6190461e-18)
(0.65880965 -0.076159735 -1.6235626e-17)
(0.6616951 -0.075069874 -6.8591486e-18)
(0.66456637 -0.073986695 -5.5834566e-18)
(0.66757862 -0.072992998 -1.7037532e-17)
(0.75322908 -0.071811538 -8.7539771e-18)
(1.3680088 -0.073620195 3.9880737e-18)
(1.3507586 -0.070439374 4.810566e-18)
(1.2201469 -0.068332317 1.3001387e-18)
(1.3687977 -0.067169625 8.7290135e-18)
)
;
    }
    defaultFaces
    {
        type            empty;
    }
}


// ************************************************************************* //
