/*--------------------------------*- C++ -*----------------------------------*\
| =========                 |                                                 |
| \\      /  F ield         | OpenFOAM: The Open Source CFD Toolbox           |
|  \\    /   O peration     | Version:  2406                                  |
|   \\  /    A nd           | Website:  www.openfoam.com                      |
|    \\/     M anipulation  |                                                 |
\*---------------------------------------------------------------------------*/
FoamFile
{
    version     2.0;
    format      ascii;
    arch        "LSB;label=32;scalar=64";
    class       volScalarField;
    location    "0";
    object      yPlus;
}
// * * * * * * * * * * * * * * * * * * * * * * * * * * * * * * * * * * * * * //

dimensions      [0 0 0 0 0 0 0];

internalField   uniform 0;

boundaryField
{
    inlet
    {
        type            calculated;
        value           uniform 0;
    }
    topWall
    {
        type            symmetry;
    }
    jet
    {
        type            calculated;
        value           uniform 0;
    }
    outlet
    {
        type            calculated;
        value           uniform 0;
    }
    bottomWall
    {
        type            calculated;
        value           nonuniform List<scalar> 
254
(
0.072822375
0.0921503
0.12984379
0.16712393
0.19828851
0.23499693
0.26412313
0.29647089
0.32381141
0.34869092
0.36917482
0.38262613
0.3920268
0.39615365
0.39793398
0.39808823
0.3977372
0.39718743
0.39640484
0.39573415
0.39495543
0.39433634
0.39365764
0.39312623
0.39255749
0.39211365
0.39164442
0.39127469
0.39088714
0.39058041
0.39025904
0.39000166
0.38973076
0.38951191
0.38927952
0.38909025
0.38888542
0.38871692
0.38853031
0.38837561
0.38819963
0.38805344
0.38788178
0.38773991
0.38756775
0.38742714
0.38725225
0.38710872
0.38692619
0.38676582
0.38656672
0.38638516
0.38616577
0.38595862
0.38571477
0.38547678
0.38520443
0.38493022
0.38462542
0.3843089
0.38396732
0.38360241
0.3832199
0.38279944
0.38237157
0.38188815
0.38141047
0.38085606
0.38032403
0.37968997
0.37909887
0.3783758
0.37772077
0.37689858
0.37617452
0.37524227
0.37443878
0.37339486
0.37249209
0.37134179
0.37032161
0.36905638
0.36790615
0.36651675
0.36522251
0.36369888
0.3622453
0.36057642
0.35894646
0.35712012
0.35529489
0.35329751
0.35125578
0.34907212
0.34679012
0.34440285
0.34185344
0.33924281
0.33639508
0.33353815
0.33035632
0.32722617
0.32366838
0.32023299
0.31624947
0.31247003
0.30800081
0.30382934
0.29880006
0.29417611
0.28849348
0.28333889
0.27688153
0.27109261
0.26369863
0.25713279
0.24857759
0.24103416
0.23098139
0.22210218
0.21257834
0.20665086
0.19915813
0.191677
0.1836404
0.17434085
0.16557665
0.15372252
0.14304751
0.12890149
0.11354368
0.096952973
0.071640022
0.052824294
0.27300091
0.27365745
0.27310975
0.27198618
0.27064122
0.26893244
0.26713459
0.26514987
0.26277613
0.2605256
0.25783442
0.2548837
0.25198369
0.24889141
0.24487912
0.24136361
0.2368531
0.2330208
0.22820535
0.22404155
0.21892005
0.21442292
0.20897557
0.20411612
0.19833836
0.19306347
0.18690389
0.18115553
0.17454152
0.16823276
0.16109921
0.15414407
0.1464058
0.13864437
0.13012047
0.12129757
0.11169504
0.10134223
0.090007347
0.076940095
0.061883761
0.040269096
0.025974557
0.047654131
0.06490227
0.078894
0.089564999
0.099781346
0.10789147
0.1161906
0.12280801
0.12990405
0.13553252
0.14185518
0.14686694
0.1527882
0.15751802
0.16332544
0.16808446
0.17376463
0.17845437
0.18383768
0.18835377
0.19338002
0.19769574
0.20237281
0.20649889
0.21084929
0.21478341
0.21881797
0.22256611
0.22631337
0.22989251
0.23337124
0.23678204
0.24000627
0.24325914
0.24625219
0.24935588
0.25213005
0.25508723
0.25765779
0.26047839
0.26286065
0.26554823
0.26775227
0.27031466
0.27235806
0.27528792
0.27797933
0.28129047
0.28407726
0.28736269
0.29018485
0.29339351
0.29618646
0.29927534
0.30198379
0.30492005
0.30749731
0.31024984
0.31265784
0.31520707
0.3174185
0.3197469
0.3217473
0.32385605
0.32564118
0.32752721
0.3291051
0.33079458
0.33218389
0.33368568
0.33491612
0.3362972
0.33741657
0.33870105
0.33975647
0.34110028
0.34240661
)
;
    }
    hump
    {
        type            calculated;
        value           nonuniform List<scalar> 
240
(
0.40416534
0.44221615
0.47071442
0.49896063
0.52848192
0.54897462
0.55627498
0.57534778
0.60228982
0.62878811
0.62136726
0.49268526
0.50416809
0.50565532
0.50762455
0.50951749
0.51065095
0.51067065
0.51010782
0.50907587
0.50833678
0.50767974
0.50706131
0.5064323
0.50580739
0.5056053
0.50646238
0.5079669
0.50880293
0.5096276
0.51031529
0.5112851
0.51183929
0.51260492
0.51334365
0.51347512
0.51411859
0.51421103
0.51345406
0.51326385
0.51305989
0.51258952
0.51164975
0.51106536
0.51084894
0.50938861
0.5078687
0.50722654
0.50635491
0.50442157
0.50198824
0.49931038
0.4968493
0.49427097
0.49129776
0.48849043
0.48564088
0.48247831
0.47978351
0.47670833
0.47273406
0.46861129
0.46329548
0.45775707
0.45224846
0.44640114
0.44155956
0.43599994
0.43215659
0.42853386
0.42466419
0.41844027
0.41102997
0.4003857
0.38915545
0.37268165
0.35551229
0.32973658
0.29217954
0.27322334
0.12147129
0.212387
0.21069215
0.23003228
0.22126461
0.22689192
0.22261285
0.22204466
0.21669765
0.21177447
0.20445969
0.19765992
0.18986442
0.18288862
0.17561729
0.16915683
0.16267397
0.15651243
0.15101326
0.14576668
0.14067259
0.13635231
0.13216845
0.12828165
0.12493521
0.12166614
0.11872105
0.11590176
0.11311006
0.11063941
0.1078771
0.10528962
0.10285154
0.10005074
0.097490874
0.094997702
0.092683628
0.090345874
0.087958731
0.085971158
0.083792735
0.081489185
0.079422422
0.077026605
0.074674847
0.072674221
0.070681262
0.069264353
0.06791885
0.067005485
0.066358359
0.065800434
0.065681386
0.065643913
0.066033047
0.066028723
0.066233865
0.066676917
0.067349503
0.067830778
0.0684043
0.069638774
0.070443066
0.071719755
0.073575084
0.075302633
0.077575619
0.08001816
0.082941533
0.085850405
0.088466997
0.092059062
0.094831082
0.097695958
0.10029894
0.10335704
0.10629941
0.10897446
0.11174081
0.11503188
0.11800831
0.1208647
0.12393096
0.12667295
0.12981712
0.13263117
0.13565952
0.13837922
0.14173199
0.14426093
0.14700502
0.14987087
0.15278759
0.15543296
0.15848921
0.16118628
0.16418076
0.16732019
0.17097969
0.17430156
0.1775479
0.18101481
0.18387623
0.18707654
0.18994644
0.19244871
0.19551528
0.19848064
0.20144827
0.20431388
0.2072583
0.20973949
0.21218628
0.21462018
0.21703267
0.21938902
0.22204042
0.22431059
0.22646097
0.22867528
0.23105661
0.23346792
0.23542942
0.2378934
0.23976174
0.24154603
0.24342784
0.24526783
0.24681957
0.2484207
0.2501855
0.25195372
0.25346687
0.25476502
0.25605514
0.2582294
0.25949261
0.2605871
0.26193798
0.26346835
0.26467944
0.26571111
0.26686114
0.26784094
0.26863548
0.26938083
0.27035039
0.27106882
0.27168447
0.27230603
0.27338851
0.27423519
0.27472219
0.27520473
0.27572249
0.30853195
0.54986002
0.54333449
0.49126072
0.54936752
)
;
    }
    defaultFaces
    {
        type            empty;
    }
}


// ************************************************************************* //
