# Wall shear stress
# Time          	patch           	min             	max             
1000            	bottomWall	(-1.14475358e+01 -1.16858492e+00 -2.89443587e-16)	(5.94192166e-01 3.42446540e+00 5.29535217e-16)
2000            	bottomWall	(-1.14507262e+01 -1.16862076e+00 -2.89508129e-16)	(5.94871763e-01 3.42522809e+00 5.29654494e-16)
3000            	bottomWall	(-1.14507292e+01 -1.16862079e+00 -2.89508190e-16)	(5.94872422e-01 3.42522877e+00 5.29654606e-16)
4000            	bottomWall	(-1.14507292e+01 -1.16862079e+00 -2.89508190e-16)	(5.94872422e-01 3.42522877e+00 5.29654606e-16)
5000            	bottomWall	(-1.14507292e+01 -1.16862079e+00 -2.89508190e-16)	(5.94872422e-01 3.42522877e+00 5.29654606e-16)
