# Wall shear stress
# Time          	patch           	min             	max             
1000            	bottomWall	(-1.12087427e+01 -1.12710261e+00 -2.74121753e-16)	(5.52780238e-01 3.43414192e+00 1.13044253e-16)
2000            	bottomWall	(-1.16781804e+01 -1.17147855e+00 -2.78341804e-16)	(5.44110925e-01 3.57417272e+00 1.17899592e-16)
3000            	bottomWall	(-1.18964632e+01 -1.19276553e+00 -2.82005571e-16)	(5.48573659e-01 3.63925429e+00 1.19047897e-16)
4000            	bottomWall	(-1.20013253e+01 -1.20309560e+00 -2.83699643e-16)	(5.51344784e-01 3.67033273e+00 1.19471423e-16)
5000            	bottomWall	(-1.20494070e+01 -1.20779626e+00 -2.84461241e-16)	(5.52377628e-01 3.68457901e+00 1.19612873e-16)
